
  ___ ___ ___ _ _ _  
 |   |   |_  | | | | 
 | | | | | . | | | | 
 |__ |  _|___|_____|  1.4.0
 |___|_|             

User:   ???@3fe09ff0504a
Date:   Mon Aug 20 19:25:25 2018
Arch:   x86_64
Pid:    1620
Python: 3.7.0
gpaw:   /app/gpaw/software/venv/lib/python3.7/site-packages/gpaw
_gpaw:  /app/gpaw/software/venv/lib/python3.7/site-packages/
        _gpaw.cpython-37m-x86_64-linux-gnu.so
ase:    /app/gpaw/software/venv/lib/python3.7/site-packages/ase (version 3.16.2)
numpy:  /app/gpaw/software/venv/lib/python3.7/site-packages/numpy (version 1.15.0)
scipy:  /app/gpaw/software/venv/lib/python3.7/site-packages/scipy (version 1.1.0)
units:  Angstrom and eV
cores:  1

Input parameters:
  gpts: [72 64 72]
  maxiter: 150
  mixer: {backend: pulay,
          beta: None,
          method: separate,
          nmaxold: None,
          weight: None}
  xc: PBE

System changes: positions, numbers, cell, pbc, initial_charges, initial_magmoms 

Initialize ...

Hf-setup:
  name: Hafnium
  id: d03a45b6fa1dd7f07e443d1513edf499
  Z: 72
  valence: 12
  core: 60
  charge: 0.0
  file: /app/gpaw/datasets/Hf.PBE
  cutoffs: 1.30(comp), 2.36(filt), 4.02(core), lmax=2
  valence states:
                energy  radius
    5s(2.00)   -66.831   1.397
    6s(2.00)    -5.097   1.397
    5p(6.00)   -35.599   1.307
    6p(0.00)    -1.401   1.307
    5d(2.00)    -2.699   1.334
    *d          24.513   1.334

  Using partial waves for Hf as LCAO basis

N-setup:
  name: Nitrogen
  id: 45c8c9c739e7b131496b9fd2deb94bff
  Z: 7
  valence: 5
  core: 2
  charge: 0.0
  file: /app/gpaw/datasets/N.PBE
  cutoffs: 0.58(comp), 1.11(filt), 0.96(core), lmax=2
  valence states:
                energy  radius
    2s(2.00)   -18.583   0.603
    2p(3.00)    -7.089   0.529
    *s           8.629   0.603
    *p          20.123   0.529
    *d           0.000   0.577

  Using partial waves for N as LCAO basis

C-setup:
  name: Carbon
  id: 2f012631b351e3618121587a96c50fca
  Z: 6
  valence: 4
  core: 2
  charge: 0.0
  file: /app/gpaw/datasets/C.PBE
  cutoffs: 0.64(comp), 1.14(filt), 1.14(core), lmax=2
  valence states:
                energy  radius
    2s(2.00)   -13.751   0.635
    2p(2.00)    -5.285   0.635
    *s          13.461   0.635
    *p          21.927   0.635
    *d           0.000   0.635

  Using partial waves for C as LCAO basis

Reference energy: -412395.464894

Spin-paired calculation

Occupation numbers:
  Fermi-Dirac: width=0.0000 eV

Convergence criteria:
  Maximum total energy change: 0.0005 eV / electron
  Maximum integral of absolute density change: 0.0001 electrons
  Maximum integral of absolute eigenstate change: 4e-08 eV^2
  Maximum number of iterations: 150

Symmetries present (total): 1

  ( 1  0  0)
  ( 0  1  0)
  ( 0  0  1)

1 k-point (Gamma)
1 k-point in the irreducible part of the Brillouin zone
       k-points in crystal coordinates                weights
   0:     0.00000000    0.00000000    0.00000000          1/1

Wave functions: Uniform real-space grid
  Kinetic energy operator: 6*3+1=19 point O(h^6) finite-difference Laplacian
  ScaLapack parameters: grid=1x1, blocksize=None 

Eigensolver
   Davidson(niter=1, smin=None, normalize=True) 

Densities:
  Coarse grid: 72*64*72 grid
  Fine grid: 144*128*144 grid
  Total Charge: 0.000000 

Density mixing:
  Method: separate
  Backend: pulay
  Linear mixing parameter: 0.25
  Mixing with 3 old densities
  No damping of long wave oscillations 

Hamiltonian:
  XC and Coulomb potentials evaluated on a 144*128*144 grid
  Using the PBE Exchange-Correlation functional
  Interpolation: tri-quintic (5. degree polynomial)
  Poisson solver: Jacobi solver with 5 multi-grid levels
    Coarsest grid: 9 x 8 x 9 points
    Stencil: 6*3+1=19 point O(h^6) finite-difference Laplacian
    Max iterations: 1000
    Tolerance: 2.000000e-10 

Memory estimate:
  Process memory now: 630.88 MiB
  Calculator: 325.36 MiB
    Density: 113.90 MiB
      Arrays: 64.29 MiB
      Localized functions: 35.07 MiB
      Mixer: 14.54 MiB
    Hamiltonian: 92.51 MiB
      Arrays: 42.05 MiB
      XC: 0.00 MiB
      Poisson: 48.10 MiB
      vbar: 2.35 MiB
    Wavefunctions: 118.96 MiB
      Arrays psit_nG: 50.88 MiB
      Eigensolver: 63.03 MiB
      Projections: 0.01 MiB
      Projectors: 5.04 MiB

Total number of cores used: 1

Number of atoms: 3
Number of atomic orbitals: 21
Number of bands in calculation: 21
Bands to converge: occupied states only
Number of valence electrons: 21

... initialized

Initializing position-dependent things.

Density initialized from atomic densities
Creating initial wave functions:
  21 bands from LCAO basis set

      .--------------------.  
     /|                    |  
    / |                    |  
   /  |                    |  
  /   |                    |  
 *    |                    |  
 |    |                    |  
 |    |     Hf   C         |  
 |    |    N               |  
 |    |                    |  
 |    .--------------------.  
 |   /                    /   
 |  /                    /    
 | /                    /     
 |/                    /      
 *--------------------*       

Positions:
   0 Hf     3.385050    4.946250    4.250000    ( 0.0000,  0.0000,  0.0000)
   1 N      3.385050    3.053750    4.250000    ( 0.0000,  0.0000,  0.0000)
   2 C      5.114950    4.766250    4.250000    ( 0.0000,  0.0000,  0.0000)

Unit cell:
           periodic     x           y           z      points  spacing
  1. axis:    no     8.500000    0.000000    0.000000    72     0.1181
  2. axis:    no     0.000000    8.000000    0.000000    64     0.1250
  3. axis:    no     0.000000    0.000000    8.500000    72     0.1181

  Lengths:   8.500000   8.000000   8.500000
  Angles:   90.000000  90.000000  90.000000

Effective grid spacing dv^(1/3) = 0.1203

                     log10-error:    total        iterations:
           time      wfs    density  energy       fermi  poisson
iter:   1  19:25:38  +2.43   +inf   -18.212196    0      15     
iter:   2  19:25:40  +1.17   +inf   -18.797066    0             
iter:   3  19:25:42  +0.59   +inf   -18.986100    0             
iter:   4  19:25:52  +0.62  -0.72   -15.542607    0      11     
iter:   5  19:26:00  +0.82  -0.80   -15.069235    0      9      
iter:   6  19:26:08  +0.48  -0.96   -14.240999    0      9      
iter:   7  19:26:17  +0.20  -1.20   -14.104921    0      9      
iter:   8  19:26:25  +0.42  -1.45   -14.099672    0      8      
iter:   9  19:26:32  -0.02  -1.84   -14.138024    0      7      
iter:  10  19:26:39  +0.01  -1.16   -14.127673    0      5      
iter:  11  19:26:46  -0.51  -2.09   -14.131593    0      5      
iter:  12  19:26:53  -0.51  -2.25   -14.133860    0      5      
iter:  13  19:26:59  -0.96  -2.33   -14.134718    0      5      
iter:  14  19:27:06  -1.10  -2.70   -14.135653    0      4      
iter:  15  19:27:12  -1.35  -2.79   -14.136363    0      5      
iter:  16  19:27:18  -1.57  -3.27   -14.136665    0      3      
iter:  17  19:27:24  -1.68  -3.40   -14.136896    0      3      
iter:  18  19:27:30  -1.88  -3.37   -14.137238    0      3      
iter:  19  19:27:36  -2.01  -3.49   -14.137434    0      3      
iter:  20  19:27:42  -2.20  -3.60   -14.137603    0      3      
iter:  21  19:27:47  -2.37  -3.97   -14.137589    0      2      
iter:  22  19:27:52  -2.50  -3.97   -14.137778    0      1      
iter:  23  19:27:58  -2.67  -3.84   -14.137455    0      2      
iter:  24  19:28:03  -2.77  -3.72   -14.137559    0      2      
iter:  25  19:28:08  -2.96  -3.64   -14.137638    0      1      
iter:  26  19:28:14  -3.06  -3.61   -14.137386    0      2      
iter:  27  19:28:20  -3.21  -3.53   -14.137655    0      3      
iter:  28  19:28:25  -3.43  -3.59   -14.137482    0      1      
iter:  29  19:28:30  -3.51  -3.57   -14.137579    0      2      
iter:  30  19:28:36  -3.73  -3.54   -14.137655    0      2      
iter:  31  19:28:42  -3.83  -3.55   -14.137694    0      3      
iter:  32  19:28:47  -4.08  -3.73   -14.137825    0      2      
iter:  33  19:28:53  -4.19  -3.89   -14.137774    0      2      
iter:  34  19:28:58  -4.38  -4.04   -14.137699    0      2      
iter:  35  19:29:04  -4.48  -4.35   -14.137578    0      2      
iter:  36  19:29:09  -4.72  -4.51   -14.137518    0      2      
iter:  37  19:29:14  -4.81  -4.99   -14.137581    0      1      
iter:  38  19:29:19  -5.05  -5.03   -14.137487    0      1      
iter:  39  19:29:24  -5.10  -5.22   -14.137552    0      1      
iter:  40  19:29:29  -5.34  -5.28   -14.137565    0      1      
iter:  41  19:29:34  -5.38  -5.26   -14.137567    0      1      
iter:  42  19:29:39  -5.63  -5.20   -14.137556    0      1      
iter:  43  19:29:44  -5.66  -5.11   -14.137556    0      1      
iter:  44  19:29:49  -5.91  -5.07   -14.137566    0      1      
iter:  45  19:29:54  -5.93  -5.05   -14.137524    0      1      
iter:  46  19:29:59  -6.19  -4.95   -14.137631    0      1      
iter:  47  19:30:04  -6.21  -5.11   -14.137607    0      1      
iter:  48  19:30:09  -6.48  -5.33   -14.137586    0      1      
iter:  49  19:30:14  -6.49  -5.50   -14.137535    0      1      
iter:  50  19:30:20  -6.73  -5.53   -14.137571    0      1      
iter:  51  19:30:25  -6.76  -6.06   -14.137559    0      1      
iter:  52  19:30:30  -6.99  -6.04   -14.137553    0      1      
iter:  53  19:30:35  -7.05  -6.46   -14.137556    0      1      
iter:  54  19:30:40  -7.26  -6.38   -14.137560    0      1      
iter:  55  19:30:45  -7.31  -6.43   -14.137556    0      1      
iter:  56  19:30:50  -7.53  -6.41   -14.137551    0      1      

Converged after 56 iterations.

Dipole moment: (-0.879246, 1.333443, -0.000000) |e|*Ang

Energy contributions relative to reference atoms: (reference = -412395.464894)

Kinetic:        +23.334001
Potential:      -18.907812
External:        +0.000000
XC:             -18.405636
Entropy (-ST):   +0.000000
Local:           -0.158104
--------------------------
Free energy:    -14.137551
Extrapolated:   -14.137551

Fermi level: -4.90367

 Band  Eigenvalues  Occupancy
    0    -65.10222    2.00000
    1    -34.60820    2.00000
    2    -34.31692    2.00000
    3    -34.10085    2.00000
    4    -15.81996    2.00000
    5    -12.17986    2.00000
    6     -6.56920    2.00000
    7     -5.55553    2.00000
    8     -5.34709    2.00000
    9     -4.96397    2.00000
   10     -4.90367    1.00000
   11     -3.26105    0.00000
   12     -3.01799    0.00000
   13     -1.27791    0.00000
   14     -0.53743    0.00000
   15      0.35438    0.00000
   16      0.78838    0.00000
   17      1.42437    0.00000
   18      2.40550    0.00000
   19      2.50375    0.00000
   20      3.18622    0.00000

Writing to 3_57799_Pm_PBE_yz0_1800.gpw (mode='all')

Timing:                              incl.     excl.
-----------------------------------------------------------
Hamiltonian:                         8.860     0.000   0.0% |
 Atomic:                             0.194     0.001   0.0% |
  XC Correction:                     0.194     0.194   0.1% |
 Calculate atomic Hamiltonians:      0.009     0.009   0.0% |
 Communicate:                        0.000     0.000   0.0% |
 Hartree integrate/restrict:         0.035     0.035   0.0% |
 Initialize Hamiltonian:             0.000     0.000   0.0% |
 Poisson:                            6.437     6.437   2.0% ||
 XC 3D grid:                         2.175     2.175   0.7% |
 vbar:                               0.011     0.011   0.0% |
LCAO initialization:                 0.798     0.548   0.2% |
 LCAO eigensolver:                   0.077     0.000   0.0% |
  Calculate projections:             0.000     0.000   0.0% |
  DenseAtomicCorrection:             0.000     0.000   0.0% |
  Distribute overlap matrix:         0.000     0.000   0.0% |
  Orbital Layouts:                   0.000     0.000   0.0% |
  Potential matrix:                  0.076     0.076   0.0% |
 LCAO to grid:                       0.170     0.170   0.1% |
 Set positions (LCAO WFS):           0.004     0.000   0.0% |
  Basic WFS set positions:           0.000     0.000   0.0% |
  Basis functions set positions:     0.000     0.000   0.0% |
  TCI: Calculate S, T, P:            0.003     0.003   0.0% |
SCF-cycle:                         313.942     0.022   0.0% |
 Davidson:                         116.886    21.249   6.5% |--|
  Apply hamiltonian:                 8.970     8.970   2.8% ||
  Subspace diag:                    33.289     0.005   0.0% |
   calc_h_matrix:                   16.518     7.549   2.3% ||
    Apply hamiltonian:               8.969     8.969   2.8% ||
   diagonalize:                      0.013     0.013   0.0% |
   rotate_psi:                      16.753    16.753   5.2% |-|
  calc. matrices:                   36.587    27.632   8.5% |--|
   Apply hamiltonian:                8.956     8.956   2.8% ||
  diagonalize:                       0.044     0.044   0.0% |
  rotate_psi:                       16.746    16.746   5.2% |-|
 Density:                            4.223     0.001   0.0% |
  Atomic density matrices:           0.036     0.036   0.0% |
  Mix:                               3.048     3.048   0.9% |
  Multipole moments:                 0.009     0.009   0.0% |
  Pseudo density:                    1.129     1.128   0.3% |
   Symmetrize density:               0.001     0.001   0.0% |
 Hamiltonian:                      192.613     0.006   0.0% |
  Atomic:                           10.326     0.045   0.0% |
   XC Correction:                   10.281    10.281   3.2% ||
  Calculate atomic Hamiltonians:     0.459     0.459   0.1% |
  Communicate:                       0.000     0.000   0.0% |
  Hartree integrate/restrict:        1.801     1.801   0.6% |
  Poisson:                          63.684    63.684  19.6% |-------|
  XC 3D grid:                      116.009   116.009  35.7% |-------------|
  vbar:                              0.326     0.326   0.1% |
 Orthonormalize:                     0.199     0.000   0.0% |
  calc_s_matrix:                     0.073     0.073   0.0% |
  inverse-cholesky:                  0.000     0.000   0.0% |
  projections:                       0.028     0.028   0.0% |
  rotate_psi_s:                      0.098     0.098   0.0% |
Set symmetry:                        0.001     0.001   0.0% |
Other:                               1.119     1.119   0.3% |
-----------------------------------------------------------
Total:                                       324.721 100.0%

Memory usage: 631.55 MiB
Date: Mon Aug 20 19:30:50 2018
