
  ___ ___ ___ _ _ _  
 |   |   |_  | | | | 
 | | | | | . | | | | 
 |__ |  _|___|_____|  1.4.0
 |___|_|             

User:   ???@3fe09ff0504a
Date:   Mon Aug 20 18:46:44 2018
Arch:   x86_64
Pid:    1620
Python: 3.7.0
gpaw:   /app/gpaw/software/venv/lib/python3.7/site-packages/gpaw
_gpaw:  /app/gpaw/software/venv/lib/python3.7/site-packages/
        _gpaw.cpython-37m-x86_64-linux-gnu.so
ase:    /app/gpaw/software/venv/lib/python3.7/site-packages/ase (version 3.16.2)
numpy:  /app/gpaw/software/venv/lib/python3.7/site-packages/numpy (version 1.15.0)
scipy:  /app/gpaw/software/venv/lib/python3.7/site-packages/scipy (version 1.1.0)
units:  Angstrom and eV
cores:  1

Input parameters:
  gpts: [72 64 72]
  maxiter: 150
  mixer: {backend: pulay,
          beta: None,
          method: separate,
          nmaxold: None,
          weight: None}
  xc: PBE

System changes: positions, numbers, cell, pbc, initial_charges, initial_magmoms 

Initialize ...

Hf-setup:
  name: Hafnium
  id: d03a45b6fa1dd7f07e443d1513edf499
  Z: 72
  valence: 12
  core: 60
  charge: 0.0
  file: /app/gpaw/datasets/Hf.PBE
  cutoffs: 1.30(comp), 2.36(filt), 4.02(core), lmax=2
  valence states:
                energy  radius
    5s(2.00)   -66.831   1.397
    6s(2.00)    -5.097   1.397
    5p(6.00)   -35.599   1.307
    6p(0.00)    -1.401   1.307
    5d(2.00)    -2.699   1.334
    *d          24.513   1.334

  Using partial waves for Hf as LCAO basis

N-setup:
  name: Nitrogen
  id: 45c8c9c739e7b131496b9fd2deb94bff
  Z: 7
  valence: 5
  core: 2
  charge: 0.0
  file: /app/gpaw/datasets/N.PBE
  cutoffs: 0.58(comp), 1.11(filt), 0.96(core), lmax=2
  valence states:
                energy  radius
    2s(2.00)   -18.583   0.603
    2p(3.00)    -7.089   0.529
    *s           8.629   0.603
    *p          20.123   0.529
    *d           0.000   0.577

  Using partial waves for N as LCAO basis

C-setup:
  name: Carbon
  id: 2f012631b351e3618121587a96c50fca
  Z: 6
  valence: 4
  core: 2
  charge: 0.0
  file: /app/gpaw/datasets/C.PBE
  cutoffs: 0.64(comp), 1.14(filt), 1.14(core), lmax=2
  valence states:
                energy  radius
    2s(2.00)   -13.751   0.635
    2p(2.00)    -5.285   0.635
    *s          13.461   0.635
    *p          21.927   0.635
    *d           0.000   0.635

  Using partial waves for C as LCAO basis

Reference energy: -412395.464894

Spin-paired calculation

Occupation numbers:
  Fermi-Dirac: width=0.0000 eV

Convergence criteria:
  Maximum total energy change: 0.0005 eV / electron
  Maximum integral of absolute density change: 0.0001 electrons
  Maximum integral of absolute eigenstate change: 4e-08 eV^2
  Maximum number of iterations: 150

Symmetries present (total): 1

  ( 1  0  0)
  ( 0  1  0)
  ( 0  0  1)

1 k-point (Gamma)
1 k-point in the irreducible part of the Brillouin zone
       k-points in crystal coordinates                weights
   0:     0.00000000    0.00000000    0.00000000          1/1

Wave functions: Uniform real-space grid
  Kinetic energy operator: 6*3+1=19 point O(h^6) finite-difference Laplacian
  ScaLapack parameters: grid=1x1, blocksize=None 

Eigensolver
   Davidson(niter=1, smin=None, normalize=True) 

Densities:
  Coarse grid: 72*64*72 grid
  Fine grid: 144*128*144 grid
  Total Charge: 0.000000 

Density mixing:
  Method: separate
  Backend: pulay
  Linear mixing parameter: 0.25
  Mixing with 3 old densities
  No damping of long wave oscillations 

Hamiltonian:
  XC and Coulomb potentials evaluated on a 144*128*144 grid
  Using the PBE Exchange-Correlation functional
  Interpolation: tri-quintic (5. degree polynomial)
  Poisson solver: Jacobi solver with 5 multi-grid levels
    Coarsest grid: 9 x 8 x 9 points
    Stencil: 6*3+1=19 point O(h^6) finite-difference Laplacian
    Max iterations: 1000
    Tolerance: 2.000000e-10 

Memory estimate:
  Process memory now: 604.54 MiB
  Calculator: 325.36 MiB
    Density: 113.90 MiB
      Arrays: 64.29 MiB
      Localized functions: 35.07 MiB
      Mixer: 14.54 MiB
    Hamiltonian: 92.51 MiB
      Arrays: 42.05 MiB
      XC: 0.00 MiB
      Poisson: 48.10 MiB
      vbar: 2.35 MiB
    Wavefunctions: 118.96 MiB
      Arrays psit_nG: 50.88 MiB
      Eigensolver: 63.03 MiB
      Projections: 0.01 MiB
      Projectors: 5.04 MiB

Total number of cores used: 1

Number of atoms: 3
Number of atomic orbitals: 21
Number of bands in calculation: 21
Bands to converge: occupied states only
Number of valence electrons: 21

... initialized

Initializing position-dependent things.

Density initialized from atomic densities
Creating initial wave functions:
  21 bands from LCAO basis set

      .--------------------.  
     /|                    |  
    / |                    |  
   /  |                    |  
  /   |                    |  
 *    |                    |  
 |    |                    |  
 |    |     Hf   C         |  
 |    |    N               |  
 |    |                    |  
 |    .--------------------.  
 |   /                    /   
 |  /                    /    
 | /                    /     
 |/                    /      
 *--------------------*       

Positions:
   0 Hf     3.385050    4.911250    4.250000    ( 0.0000,  0.0000,  0.0000)
   1 N      3.385050    3.088750    4.250000    ( 0.0000,  0.0000,  0.0000)
   2 C      5.114950    4.801250    4.250000    ( 0.0000,  0.0000,  0.0000)

Unit cell:
           periodic     x           y           z      points  spacing
  1. axis:    no     8.500000    0.000000    0.000000    72     0.1181
  2. axis:    no     0.000000    8.000000    0.000000    64     0.1250
  3. axis:    no     0.000000    0.000000    8.500000    72     0.1181

  Lengths:   8.500000   8.000000   8.500000
  Angles:   90.000000  90.000000  90.000000

Effective grid spacing dv^(1/3) = 0.1203

                     log10-error:    total        iterations:
           time      wfs    density  energy       fermi  poisson
iter:   1  18:46:58  +2.41   +inf   -18.177651    0      15     
iter:   2  18:47:01  +1.20   +inf   -18.808928    0             
iter:   3  18:47:04  +0.62   +inf   -19.010059    0             
iter:   4  18:47:14  +0.63  -0.72   -15.600721    0      11     
iter:   5  18:47:23  +0.80  -0.83   -14.981509    0      9      
iter:   6  18:47:33  +0.52  -0.97   -14.185015    0      10     
iter:   7  18:47:43  +0.27  -1.22   -14.080609    0      9      
iter:   8  18:47:52  +0.48  -1.50   -14.090371    0      8      
iter:   9  18:48:00  -0.13  -1.83   -14.109482    0      7      
iter:  10  18:48:07  +0.07  -2.03   -14.115350    0      5      
iter:  11  18:48:15  -0.65  -2.24   -14.118577    0      5      
iter:  12  18:48:22  -0.55  -2.37   -14.120125    0      5      
iter:  13  18:48:30  -1.19  -2.69   -14.121576    0      4      
iter:  14  18:48:37  -0.93  -2.68   -14.122675    0      5      
iter:  15  18:48:45  -1.68  -3.11   -14.122965    0      4      
iter:  16  18:48:52  -1.31  -3.24   -14.123335    0      4      
iter:  17  18:48:59  -2.10  -3.17   -14.123821    0      3      
iter:  18  18:49:06  -1.71  -3.24   -14.123941    0      3      
iter:  19  18:49:13  -2.44  -3.26   -14.124421    0      4      
iter:  20  18:49:20  -2.32  -3.28   -14.123670    0      4      
iter:  21  18:49:26  -2.53  -3.55   -14.124028    0      3      
iter:  22  18:49:33  -2.69  -3.67   -14.124195    0      2      
iter:  23  18:49:40  -2.83  -3.74   -14.124177    0      3      
iter:  24  18:49:46  -3.02  -4.18   -14.124237    0      2      
iter:  25  18:49:52  -3.15  -4.50   -14.124238    0      1      
iter:  26  18:49:58  -3.30  -4.39   -14.124026    0      1      
iter:  27  18:50:04  -3.43  -4.19   -14.124288    0      1      
iter:  28  18:50:10  -3.58  -4.19   -14.124172    0      2      
iter:  29  18:50:16  -3.74  -4.26   -14.124184    0      2      
iter:  30  18:50:22  -3.89  -4.36   -14.124312    0      2      
iter:  31  18:50:28  -4.08  -4.75   -14.123904    0      1      
iter:  32  18:50:34  -4.17  -4.71   -14.124141    0      1      
iter:  33  18:50:39  -4.38  -4.74   -14.124199    0      1      
iter:  34  18:50:46  -4.46  -4.91   -14.124168    0      2      
iter:  35  18:50:52  -4.68  -4.87   -14.123871    0      1      
iter:  36  18:50:57  -4.72  -4.92   -14.124076    0      1      
iter:  37  18:51:03  -4.98  -4.99   -14.124159    0      1      
iter:  38  18:51:09  -5.00  -5.28   -14.124192    0      1      
iter:  39  18:51:15  -5.26  -5.68   -14.124081    0      1      
iter:  40  18:51:21  -5.29  -5.48   -14.124151    0      1      
iter:  41  18:51:26  -5.54  -5.69   -14.124064    0      1      
iter:  42  18:51:33  -5.56  -5.55   -14.124127    0      1      
iter:  43  18:51:38  -5.83  -6.00   -14.124075    0      1      
iter:  44  18:51:44  -5.84  -5.81   -14.124106    0      1      
iter:  45  18:51:50  -6.13  -6.18   -14.124075    0      1      
iter:  46  18:51:55  -6.11  -5.87   -14.124076    0      1      
iter:  47  18:52:01  -6.39  -5.70   -14.124092    0      1      
iter:  48  18:52:07  -6.40  -5.85   -14.124079    0      1      
iter:  49  18:52:13  -6.66  -5.66   -14.124098    0      1      
iter:  50  18:52:19  -6.69  -5.90   -14.124107    0      1      
iter:  51  18:52:25  -6.95  -6.32   -14.124084    0      1      
iter:  52  18:52:30  -6.98  -6.31   -14.124084    0      1      
iter:  53  18:52:36  -7.22  -6.43   -14.124082    0      1      
iter:  54  18:52:42  -7.27  -6.45   -14.124085    0      1      
iter:  55  18:52:48  -7.49  -6.84   -14.124077    0      1      

Converged after 55 iterations.

Dipole moment: (-0.883319, 1.254195, 0.000000) |e|*Ang

Energy contributions relative to reference atoms: (reference = -412395.464894)

Kinetic:        +29.609283
Potential:      -24.025278
External:        +0.000000
XC:             -19.582099
Entropy (-ST):   +0.000000
Local:           -0.125983
--------------------------
Free energy:    -14.124077
Extrapolated:   -14.124077

Fermi level: -4.83502

 Band  Eigenvalues  Occupancy
    0    -64.89687    2.00000
    1    -34.45319    2.00000
    2    -34.12504    2.00000
    3    -34.04422    2.00000
    4    -15.82889    2.00000
    5    -12.16501    2.00000
    6     -6.72803    2.00000
    7     -5.62724    2.00000
    8     -5.40514    2.00000
    9     -5.11475    2.00000
   10     -4.83502    1.00000
   11     -3.32106    0.00000
   12     -2.95131    0.00000
   13     -1.18642    0.00000
   14     -0.42101    0.00000
   15      0.66376    0.00000
   16      0.98067    0.00000
   17      1.64738    0.00000
   18      2.51011    0.00000
   19      2.61999    0.00000
   20      3.19749    0.00000

Writing to 3_57799_Pm_PBE_yz0_1099.gpw (mode='all')

Timing:                              incl.     excl.
-----------------------------------------------------------
Hamiltonian:                         9.539     0.000   0.0% |
 Atomic:                             0.201     0.001   0.0% |
  XC Correction:                     0.200     0.200   0.1% |
 Calculate atomic Hamiltonians:      0.009     0.009   0.0% |
 Communicate:                        0.000     0.000   0.0% |
 Hartree integrate/restrict:         0.037     0.037   0.0% |
 Initialize Hamiltonian:             0.000     0.000   0.0% |
 Poisson:                            6.969     6.969   1.9% ||
 XC 3D grid:                         2.308     2.308   0.6% |
 vbar:                               0.015     0.015   0.0% |
LCAO initialization:                 0.831     0.573   0.2% |
 LCAO eigensolver:                   0.079     0.000   0.0% |
  Calculate projections:             0.000     0.000   0.0% |
  DenseAtomicCorrection:             0.000     0.000   0.0% |
  Distribute overlap matrix:         0.000     0.000   0.0% |
  Orbital Layouts:                   0.000     0.000   0.0% |
  Potential matrix:                  0.078     0.078   0.0% |
 LCAO to grid:                       0.175     0.175   0.0% |
 Set positions (LCAO WFS):           0.004     0.000   0.0% |
  Basic WFS set positions:           0.000     0.000   0.0% |
  Basis functions set positions:     0.000     0.000   0.0% |
  TCI: Calculate S, T, P:            0.003     0.003   0.0% |
SCF-cycle:                         352.708     0.022   0.0% |
 Davidson:                         145.800    23.752   6.5% |--|
  Apply hamiltonian:                 9.875     9.875   2.7% ||
  Subspace diag:                    42.649     0.006   0.0% |
   calc_h_matrix:                   21.345    11.481   3.2% ||
    Apply hamiltonian:               9.864     9.864   2.7% ||
   diagonalize:                      0.013     0.013   0.0% |
   rotate_psi:                      21.285    21.285   5.8% |-|
  calc. matrices:                   48.779    38.862  10.7% |---|
   Apply hamiltonian:                9.917     9.917   2.7% ||
  diagonalize:                       0.045     0.045   0.0% |
  rotate_psi:                       20.702    20.702   5.7% |-|
 Density:                            4.797     0.001   0.0% |
  Atomic density matrices:           0.038     0.038   0.0% |
  Mix:                               3.337     3.337   0.9% |
  Multipole moments:                 0.010     0.010   0.0% |
  Pseudo density:                    1.411     1.410   0.4% |
   Symmetrize density:               0.001     0.001   0.0% |
 Hamiltonian:                      201.840     0.006   0.0% |
  Atomic:                           10.834     0.048   0.0% |
   XC Correction:                   10.786    10.786   3.0% ||
  Calculate atomic Hamiltonians:     0.473     0.473   0.1% |
  Communicate:                       0.000     0.000   0.0% |
  Hartree integrate/restrict:        2.154     2.154   0.6% |
  Poisson:                          68.081    68.081  18.7% |------|
  XC 3D grid:                      119.842   119.842  32.9% |------------|
  vbar:                              0.447     0.447   0.1% |
 Orthonormalize:                     0.248     0.000   0.0% |
  calc_s_matrix:                     0.100     0.100   0.0% |
  inverse-cholesky:                  0.000     0.000   0.0% |
  projections:                       0.029     0.029   0.0% |
  rotate_psi_s:                      0.118     0.118   0.0% |
Set symmetry:                        0.001     0.001   0.0% |
Other:                               1.206     1.206   0.3% |
-----------------------------------------------------------
Total:                                       364.285 100.0%

Memory usage: 610.62 MiB
Date: Mon Aug 20 18:52:48 2018
