
  ___ ___ ___ _ _ _  
 |   |   |_  | | | | 
 | | | | | . | | | | 
 |__ |  _|___|_____|  1.4.0
 |___|_|             

User:   ???@3fe09ff0504a
Date:   Mon Aug 20 19:20:07 2018
Arch:   x86_64
Pid:    1620
Python: 3.7.0
gpaw:   /app/gpaw/software/venv/lib/python3.7/site-packages/gpaw
_gpaw:  /app/gpaw/software/venv/lib/python3.7/site-packages/
        _gpaw.cpython-37m-x86_64-linux-gnu.so
ase:    /app/gpaw/software/venv/lib/python3.7/site-packages/ase (version 3.16.2)
numpy:  /app/gpaw/software/venv/lib/python3.7/site-packages/numpy (version 1.15.0)
scipy:  /app/gpaw/software/venv/lib/python3.7/site-packages/scipy (version 1.1.0)
units:  Angstrom and eV
cores:  1

Input parameters:
  gpts: [72 64 72]
  maxiter: 150
  mixer: {backend: pulay,
          beta: None,
          method: separate,
          nmaxold: None,
          weight: None}
  xc: PBE

System changes: positions, numbers, cell, pbc, initial_charges, initial_magmoms 

Initialize ...

Hf-setup:
  name: Hafnium
  id: d03a45b6fa1dd7f07e443d1513edf499
  Z: 72
  valence: 12
  core: 60
  charge: 0.0
  file: /app/gpaw/datasets/Hf.PBE
  cutoffs: 1.30(comp), 2.36(filt), 4.02(core), lmax=2
  valence states:
                energy  radius
    5s(2.00)   -66.831   1.397
    6s(2.00)    -5.097   1.397
    5p(6.00)   -35.599   1.307
    6p(0.00)    -1.401   1.307
    5d(2.00)    -2.699   1.334
    *d          24.513   1.334

  Using partial waves for Hf as LCAO basis

N-setup:
  name: Nitrogen
  id: 45c8c9c739e7b131496b9fd2deb94bff
  Z: 7
  valence: 5
  core: 2
  charge: 0.0
  file: /app/gpaw/datasets/N.PBE
  cutoffs: 0.58(comp), 1.11(filt), 0.96(core), lmax=2
  valence states:
                energy  radius
    2s(2.00)   -18.583   0.603
    2p(3.00)    -7.089   0.529
    *s           8.629   0.603
    *p          20.123   0.529
    *d           0.000   0.577

  Using partial waves for N as LCAO basis

C-setup:
  name: Carbon
  id: 2f012631b351e3618121587a96c50fca
  Z: 6
  valence: 4
  core: 2
  charge: 0.0
  file: /app/gpaw/datasets/C.PBE
  cutoffs: 0.64(comp), 1.14(filt), 1.14(core), lmax=2
  valence states:
                energy  radius
    2s(2.00)   -13.751   0.635
    2p(2.00)    -5.285   0.635
    *s          13.461   0.635
    *p          21.927   0.635
    *d           0.000   0.635

  Using partial waves for C as LCAO basis

Reference energy: -412395.464894

Spin-paired calculation

Occupation numbers:
  Fermi-Dirac: width=0.0000 eV

Convergence criteria:
  Maximum total energy change: 0.0005 eV / electron
  Maximum integral of absolute density change: 0.0001 electrons
  Maximum integral of absolute eigenstate change: 4e-08 eV^2
  Maximum number of iterations: 150

Symmetries present (total): 1

  ( 1  0  0)
  ( 0  1  0)
  ( 0  0  1)

1 k-point (Gamma)
1 k-point in the irreducible part of the Brillouin zone
       k-points in crystal coordinates                weights
   0:     0.00000000    0.00000000    0.00000000          1/1

Wave functions: Uniform real-space grid
  Kinetic energy operator: 6*3+1=19 point O(h^6) finite-difference Laplacian
  ScaLapack parameters: grid=1x1, blocksize=None 

Eigensolver
   Davidson(niter=1, smin=None, normalize=True) 

Densities:
  Coarse grid: 72*64*72 grid
  Fine grid: 144*128*144 grid
  Total Charge: 0.000000 

Density mixing:
  Method: separate
  Backend: pulay
  Linear mixing parameter: 0.25
  Mixing with 3 old densities
  No damping of long wave oscillations 

Hamiltonian:
  XC and Coulomb potentials evaluated on a 144*128*144 grid
  Using the PBE Exchange-Correlation functional
  Interpolation: tri-quintic (5. degree polynomial)
  Poisson solver: Jacobi solver with 5 multi-grid levels
    Coarsest grid: 9 x 8 x 9 points
    Stencil: 6*3+1=19 point O(h^6) finite-difference Laplacian
    Max iterations: 1000
    Tolerance: 2.000000e-10 

Memory estimate:
  Process memory now: 628.63 MiB
  Calculator: 325.36 MiB
    Density: 113.90 MiB
      Arrays: 64.29 MiB
      Localized functions: 35.07 MiB
      Mixer: 14.54 MiB
    Hamiltonian: 92.51 MiB
      Arrays: 42.05 MiB
      XC: 0.00 MiB
      Poisson: 48.10 MiB
      vbar: 2.35 MiB
    Wavefunctions: 118.96 MiB
      Arrays psit_nG: 50.88 MiB
      Eigensolver: 63.03 MiB
      Projections: 0.01 MiB
      Projectors: 5.04 MiB

Total number of cores used: 1

Number of atoms: 3
Number of atomic orbitals: 21
Number of bands in calculation: 21
Bands to converge: occupied states only
Number of valence electrons: 21

... initialized

Initializing position-dependent things.

Density initialized from atomic densities
Creating initial wave functions:
  21 bands from LCAO basis set

      .--------------------.  
     /|                    |  
    / |                    |  
   /  |                    |  
  /   |                    |  
 *    |                    |  
 |    |                    |  
 |    |     Hf   C         |  
 |    |    N               |  
 |    |                    |  
 |    .--------------------.  
 |   /                    /   
 |  /                    /    
 | /                    /     
 |/                    /      
 *--------------------*       

Positions:
   0 Hf     3.385050    4.941250    4.250000    ( 0.0000,  0.0000,  0.0000)
   1 N      3.385050    3.058750    4.250000    ( 0.0000,  0.0000,  0.0000)
   2 C      5.114950    4.771250    4.250000    ( 0.0000,  0.0000,  0.0000)

Unit cell:
           periodic     x           y           z      points  spacing
  1. axis:    no     8.500000    0.000000    0.000000    72     0.1181
  2. axis:    no     0.000000    8.000000    0.000000    64     0.1250
  3. axis:    no     0.000000    0.000000    8.500000    72     0.1181

  Lengths:   8.500000   8.000000   8.500000
  Angles:   90.000000  90.000000  90.000000

Effective grid spacing dv^(1/3) = 0.1203

                     log10-error:    total        iterations:
           time      wfs    density  energy       fermi  poisson
iter:   1  19:20:20  +2.43   +inf   -18.212516    0      15     
iter:   2  19:20:22  +1.18   +inf   -18.803743    0             
iter:   3  19:20:24  +0.60   +inf   -18.994478    0             
iter:   4  19:20:33  +0.61  -0.72   -15.528953    0      11     
iter:   5  19:20:42  +0.82  -0.80   -15.071012    0      9      
iter:   6  19:20:50  +0.48  -0.96   -14.243513    0      9      
iter:   7  19:20:59  +0.21  -1.20   -14.109023    0      9      
iter:   8  19:21:07  +0.43  -1.45   -14.105396    0      8      
iter:   9  19:21:14  -0.04  -1.84   -14.124574    0      7      
iter:  10  19:21:21  +0.02  -2.08   -14.132950    0      5      
iter:  11  19:21:28  -0.52  -2.26   -14.137236    0      5      
iter:  12  19:21:34  -0.52  -2.34   -14.138759    0      5      
iter:  13  19:21:41  -1.11  -2.65   -14.140282    0      4      
iter:  14  19:21:47  -0.93  -2.70   -14.141461    0      4      
iter:  15  19:21:54  -1.56  -2.87   -14.141903    0      5      
iter:  16  19:22:00  -1.43  -3.21   -14.141998    0      4      
iter:  17  19:22:06  -1.85  -3.22   -14.142562    0      4      
iter:  18  19:22:12  -1.80  -3.43   -14.142499    0      3      
iter:  19  19:22:18  -2.11  -3.45   -14.142872    0      3      
iter:  20  19:22:24  -2.15  -3.55   -14.143052    0      3      
iter:  21  19:22:30  -2.48  -3.80   -14.143077    0      3      
iter:  22  19:22:35  -2.50  -4.05   -14.142998    0      1      
iter:  23  19:22:40  -2.76  -4.00   -14.143218    0      1      
iter:  24  19:22:45  -2.79  -3.92   -14.143132    0      1      
iter:  25  19:22:50  -3.05  -3.84   -14.142665    0      1      
iter:  26  19:22:55  -3.05  -3.72   -14.143050    0      1      
iter:  27  19:23:01  -3.34  -3.68   -14.143099    0      2      
iter:  28  19:23:06  -3.35  -3.68   -14.142837    0      2      
iter:  29  19:23:12  -3.54  -3.57   -14.143111    0      3      
iter:  30  19:23:18  -3.72  -3.74   -14.143226    0      3      
iter:  31  19:23:23  -3.99  -4.18   -14.142918    0      2      
iter:  32  19:23:29  -4.03  -4.09   -14.143129    0      2      
iter:  33  19:23:34  -4.35  -4.48   -14.143085    0      2      
iter:  34  19:23:39  -4.36  -4.79   -14.142899    0      1      
iter:  35  19:23:44  -4.67  -5.02   -14.142894    0      1      
iter:  36  19:23:49  -4.65  -5.06   -14.143012    0      1      
iter:  37  19:23:54  -4.95  -5.11   -14.142993    0      1      
iter:  38  19:23:59  -4.94  -5.11   -14.143004    0      1      
iter:  39  19:24:04  -5.23  -5.07   -14.142980    0      1      
iter:  40  19:24:09  -5.21  -4.96   -14.143029    0      1      
iter:  41  19:24:14  -5.50  -5.01   -14.143037    0      1      
iter:  42  19:24:19  -5.50  -5.10   -14.143119    0      1      
iter:  43  19:24:25  -5.75  -5.37   -14.142959    0      1      
iter:  44  19:24:30  -5.80  -5.34   -14.143003    0      1      
iter:  45  19:24:35  -6.05  -5.72   -14.143001    0      1      
iter:  46  19:24:40  -6.09  -5.68   -14.143007    0      1      
iter:  47  19:24:45  -6.33  -5.92   -14.142989    0      1      
iter:  48  19:24:50  -6.37  -6.01   -14.142998    0      1      
iter:  49  19:24:55  -6.61  -6.19   -14.142995    0      1      
iter:  50  19:25:00  -6.64  -6.14   -14.142987    0      1      
iter:  51  19:25:05  -6.88  -5.84   -14.143003    0      1      
iter:  52  19:25:10  -6.91  -6.07   -14.142995    0      1      
iter:  53  19:25:15  -7.16  -6.13   -14.143006    0      1      
iter:  54  19:25:20  -7.19  -6.26   -14.142991    0      1      
iter:  55  19:25:25  -7.43  -6.38   -14.142999    0      1      

Converged after 55 iterations.

Dipole moment: (-0.880176, 1.322667, 0.000000) |e|*Ang

Energy contributions relative to reference atoms: (reference = -412395.464894)

Kinetic:        +24.175746
Potential:      -19.594542
External:        +0.000000
XC:             -18.570096
Entropy (-ST):   +0.000000
Local:           -0.154108
--------------------------
Free energy:    -14.142999
Extrapolated:   -14.142999

Fermi level: -4.89376

 Band  Eigenvalues  Occupancy
    0    -65.07231    2.00000
    1    -34.58607    2.00000
    2    -34.28941    2.00000
    3    -34.08913    2.00000
    4    -15.82279    2.00000
    5    -12.17698    2.00000
    6     -6.59033    2.00000
    7     -5.56232    2.00000
    8     -5.35463    2.00000
    9     -4.98710    2.00000
   10     -4.89376    1.00000
   11     -3.26925    0.00000
   12     -3.00850    0.00000
   13     -1.26457    0.00000
   14     -0.52044    0.00000
   15      0.39768    0.00000
   16      0.81635    0.00000
   17      1.45859    0.00000
   18      2.42138    0.00000
   19      2.51735    0.00000
   20      3.18875    0.00000

Writing to 3_57799_Pm_PBE_yz0_17.gpw (mode='all')

Timing:                              incl.     excl.
-----------------------------------------------------------
Hamiltonian:                         8.871     0.000   0.0% |
 Atomic:                             0.195     0.001   0.0% |
  XC Correction:                     0.194     0.194   0.1% |
 Calculate atomic Hamiltonians:      0.009     0.009   0.0% |
 Communicate:                        0.000     0.000   0.0% |
 Hartree integrate/restrict:         0.034     0.034   0.0% |
 Initialize Hamiltonian:             0.000     0.000   0.0% |
 Poisson:                            6.437     6.437   2.0% ||
 XC 3D grid:                         2.185     2.185   0.7% |
 vbar:                               0.011     0.011   0.0% |
LCAO initialization:                 0.815     0.565   0.2% |
 LCAO eigensolver:                   0.076     0.000   0.0% |
  Calculate projections:             0.000     0.000   0.0% |
  DenseAtomicCorrection:             0.000     0.000   0.0% |
  Distribute overlap matrix:         0.000     0.000   0.0% |
  Orbital Layouts:                   0.000     0.000   0.0% |
  Potential matrix:                  0.075     0.075   0.0% |
 LCAO to grid:                       0.170     0.170   0.1% |
 Set positions (LCAO WFS):           0.004     0.000   0.0% |
  Basic WFS set positions:           0.000     0.000   0.0% |
  Basis functions set positions:     0.000     0.000   0.0% |
  TCI: Calculate S, T, P:            0.003     0.003   0.0% |
SCF-cycle:                         307.410     0.021   0.0% |
 Davidson:                         114.618    20.884   6.6% |--|
  Apply hamiltonian:                 8.816     8.816   2.8% ||
  Subspace diag:                    32.665     0.005   0.0% |
   calc_h_matrix:                   16.190     7.374   2.3% ||
    Apply hamiltonian:               8.816     8.816   2.8% ||
   diagonalize:                      0.013     0.013   0.0% |
   rotate_psi:                      16.458    16.458   5.2% |-|
  calc. matrices:                   35.824    26.959   8.5% |--|
   Apply hamiltonian:                8.865     8.865   2.8% ||
  diagonalize:                       0.043     0.043   0.0% |
  rotate_psi:                       16.387    16.387   5.1% |-|
 Density:                            4.150     0.001   0.0% |
  Atomic density matrices:           0.035     0.035   0.0% |
  Mix:                               2.990     2.990   0.9% |
  Multipole moments:                 0.009     0.009   0.0% |
  Pseudo density:                    1.115     1.114   0.4% |
   Symmetrize density:               0.001     0.001   0.0% |
 Hamiltonian:                      188.420     0.006   0.0% |
  Atomic:                           10.144     0.044   0.0% |
   XC Correction:                   10.100    10.100   3.2% ||
  Calculate atomic Hamiltonians:     0.450     0.450   0.1% |
  Communicate:                       0.000     0.000   0.0% |
  Hartree integrate/restrict:        1.764     1.764   0.6% |
  Poisson:                          61.935    61.935  19.5% |-------|
  XC 3D grid:                      113.799   113.799  35.8% |-------------|
  vbar:                              0.322     0.322   0.1% |
 Orthonormalize:                     0.200     0.000   0.0% |
  calc_s_matrix:                     0.073     0.073   0.0% |
  inverse-cholesky:                  0.000     0.000   0.0% |
  projections:                       0.028     0.028   0.0% |
  rotate_psi_s:                      0.098     0.098   0.0% |
Set symmetry:                        0.001     0.001   0.0% |
Other:                               1.121     1.121   0.4% |
-----------------------------------------------------------
Total:                                       318.217 100.0%

Memory usage: 630.88 MiB
Date: Mon Aug 20 19:25:25 2018
