
  ___ ___ ___ _ _ _  
 |   |   |_  | | | | 
 | | | | | . | | | | 
 |__ |  _|___|_____|  1.4.0
 |___|_|             

User:   ???@3fe09ff0504a
Date:   Mon Aug 20 18:28:27 2018
Arch:   x86_64
Pid:    1620
Python: 3.7.0
gpaw:   /app/gpaw/software/venv/lib/python3.7/site-packages/gpaw
_gpaw:  /app/gpaw/software/venv/lib/python3.7/site-packages/
        _gpaw.cpython-37m-x86_64-linux-gnu.so
ase:    /app/gpaw/software/venv/lib/python3.7/site-packages/ase (version 3.16.2)
numpy:  /app/gpaw/software/venv/lib/python3.7/site-packages/numpy (version 1.15.0)
scipy:  /app/gpaw/software/venv/lib/python3.7/site-packages/scipy (version 1.1.0)
units:  Angstrom and eV
cores:  1

Input parameters:
  gpts: [72 64 72]
  maxiter: 150
  mixer: {backend: pulay,
          beta: None,
          method: separate,
          nmaxold: None,
          weight: None}
  xc: PBE

System changes: positions, numbers, cell, pbc, initial_charges, initial_magmoms 

Initialize ...

Hf-setup:
  name: Hafnium
  id: d03a45b6fa1dd7f07e443d1513edf499
  Z: 72
  valence: 12
  core: 60
  charge: 0.0
  file: /app/gpaw/datasets/Hf.PBE
  cutoffs: 1.30(comp), 2.36(filt), 4.02(core), lmax=2
  valence states:
                energy  radius
    5s(2.00)   -66.831   1.397
    6s(2.00)    -5.097   1.397
    5p(6.00)   -35.599   1.307
    6p(0.00)    -1.401   1.307
    5d(2.00)    -2.699   1.334
    *d          24.513   1.334

  Using partial waves for Hf as LCAO basis

N-setup:
  name: Nitrogen
  id: 45c8c9c739e7b131496b9fd2deb94bff
  Z: 7
  valence: 5
  core: 2
  charge: 0.0
  file: /app/gpaw/datasets/N.PBE
  cutoffs: 0.58(comp), 1.11(filt), 0.96(core), lmax=2
  valence states:
                energy  radius
    2s(2.00)   -18.583   0.603
    2p(3.00)    -7.089   0.529
    *s           8.629   0.603
    *p          20.123   0.529
    *d           0.000   0.577

  Using partial waves for N as LCAO basis

C-setup:
  name: Carbon
  id: 2f012631b351e3618121587a96c50fca
  Z: 6
  valence: 4
  core: 2
  charge: 0.0
  file: /app/gpaw/datasets/C.PBE
  cutoffs: 0.64(comp), 1.14(filt), 1.14(core), lmax=2
  valence states:
                energy  radius
    2s(2.00)   -13.751   0.635
    2p(2.00)    -5.285   0.635
    *s          13.461   0.635
    *p          21.927   0.635
    *d           0.000   0.635

  Using partial waves for C as LCAO basis

Reference energy: -412395.464894

Spin-paired calculation

Occupation numbers:
  Fermi-Dirac: width=0.0000 eV

Convergence criteria:
  Maximum total energy change: 0.0005 eV / electron
  Maximum integral of absolute density change: 0.0001 electrons
  Maximum integral of absolute eigenstate change: 4e-08 eV^2
  Maximum number of iterations: 150

Symmetries present (total): 1

  ( 1  0  0)
  ( 0  1  0)
  ( 0  0  1)

1 k-point (Gamma)
1 k-point in the irreducible part of the Brillouin zone
       k-points in crystal coordinates                weights
   0:     0.00000000    0.00000000    0.00000000          1/1

Wave functions: Uniform real-space grid
  Kinetic energy operator: 6*3+1=19 point O(h^6) finite-difference Laplacian
  ScaLapack parameters: grid=1x1, blocksize=None 

Eigensolver
   Davidson(niter=1, smin=None, normalize=True) 

Densities:
  Coarse grid: 72*64*72 grid
  Fine grid: 144*128*144 grid
  Total Charge: 0.000000 

Density mixing:
  Method: separate
  Backend: pulay
  Linear mixing parameter: 0.25
  Mixing with 3 old densities
  No damping of long wave oscillations 

Hamiltonian:
  XC and Coulomb potentials evaluated on a 144*128*144 grid
  Using the PBE Exchange-Correlation functional
  Interpolation: tri-quintic (5. degree polynomial)
  Poisson solver: Jacobi solver with 5 multi-grid levels
    Coarsest grid: 9 x 8 x 9 points
    Stencil: 6*3+1=19 point O(h^6) finite-difference Laplacian
    Max iterations: 1000
    Tolerance: 2.000000e-10 

Memory estimate:
  Process memory now: 604.50 MiB
  Calculator: 325.36 MiB
    Density: 113.90 MiB
      Arrays: 64.29 MiB
      Localized functions: 35.07 MiB
      Mixer: 14.54 MiB
    Hamiltonian: 92.51 MiB
      Arrays: 42.05 MiB
      XC: 0.00 MiB
      Poisson: 48.10 MiB
      vbar: 2.35 MiB
    Wavefunctions: 118.96 MiB
      Arrays psit_nG: 50.88 MiB
      Eigensolver: 63.03 MiB
      Projections: 0.01 MiB
      Projectors: 5.04 MiB

Total number of cores used: 1

Number of atoms: 3
Number of atomic orbitals: 21
Number of bands in calculation: 21
Bands to converge: occupied states only
Number of valence electrons: 21

... initialized

Initializing position-dependent things.

Density initialized from atomic densities
Creating initial wave functions:
  21 bands from LCAO basis set

      .--------------------.  
     /|                    |  
    / |                    |  
   /  |                    |  
  /   |                    |  
 *    |                    |  
 |    |                    |  
 |    |     Hf   C         |  
 |    |    N               |  
 |    |                    |  
 |    .--------------------.  
 |   /                    /   
 |  /                    /    
 | /                    /     
 |/                    /      
 *--------------------*       

Positions:
   0 Hf     3.385050    4.896250    4.250000    ( 0.0000,  0.0000,  0.0000)
   1 N      3.385050    3.103750    4.250000    ( 0.0000,  0.0000,  0.0000)
   2 C      5.114950    4.816250    4.250000    ( 0.0000,  0.0000,  0.0000)

Unit cell:
           periodic     x           y           z      points  spacing
  1. axis:    no     8.500000    0.000000    0.000000    72     0.1181
  2. axis:    no     0.000000    8.000000    0.000000    64     0.1250
  3. axis:    no     0.000000    0.000000    8.500000    72     0.1181

  Lengths:   8.500000   8.000000   8.500000
  Angles:   90.000000  90.000000  90.000000

Effective grid spacing dv^(1/3) = 0.1203

                     log10-error:    total        iterations:
           time      wfs    density  energy       fermi  poisson
iter:   1  18:28:41  +2.41   +inf   -18.131630    0      15     
iter:   2  18:28:43  +1.21   +inf   -18.784366    0             
iter:   3  18:28:46  +0.63   +inf   -18.990915    0             
iter:   4  18:28:56  +0.63  -0.72   -15.612690    0      11     
iter:   5  18:29:05  +0.79  -0.83   -14.920765    0      9      
iter:   6  18:29:15  +0.52  -0.97   -14.127102    0      10     
iter:   7  18:29:24  +0.29  -1.23   -14.030433    0      9      
iter:   8  18:29:32  +0.51  -1.52   -14.044938    0      8      
iter:   9  18:29:41  -0.16  -1.81   -14.063239    0      7      
iter:  10  18:29:48  +0.09  -2.02   -14.068478    0      5      
iter:  11  18:29:55  -0.70  -2.24   -14.071295    0      5      
iter:  12  18:30:02  -0.56  -2.40   -14.072800    0      5      
iter:  13  18:30:09  -1.22  -2.67   -14.074199    0      4      
iter:  14  18:30:16  -0.96  -2.68   -14.075228    0      5      
iter:  15  18:30:23  -1.70  -3.04   -14.075320    0      4      
iter:  16  18:30:30  -1.33  -3.20   -14.075725    0      4      
iter:  17  18:30:37  -2.14  -3.14   -14.076203    0      3      
iter:  18  18:30:44  -1.74  -3.21   -14.076331    0      3      
iter:  19  18:30:52  -2.48  -3.25   -14.076754    0      4      
iter:  20  18:31:01  -2.36  -3.33   -14.076084    0      4      
iter:  21  18:31:08  -2.62  -3.63   -14.076342    0      2      
iter:  22  18:31:15  -2.71  -3.72   -14.076474    0      2      
iter:  23  18:31:22  -2.91  -3.79   -14.076602    0      2      
iter:  24  18:31:29  -3.02  -4.00   -14.076526    0      3      
iter:  25  18:31:36  -3.25  -4.51   -14.076572    0      1      
iter:  26  18:31:42  -3.30  -4.51   -14.076614    0      1      
iter:  27  18:31:48  -3.53  -4.45   -14.076331    0      1      
iter:  28  18:31:54  -3.58  -4.21   -14.076603    0      1      
iter:  29  18:32:00  -3.81  -4.25   -14.076526    0      1      
iter:  30  18:32:06  -3.86  -4.18   -14.076166    0      1      
iter:  31  18:32:13  -4.08  -4.03   -14.076301    0      2      
iter:  32  18:32:20  -4.06  -3.91   -14.076527    0      3      
iter:  33  18:32:27  -4.48  -4.28   -14.076606    0      2      
iter:  34  18:32:34  -4.46  -4.53   -14.076527    0      1      
iter:  35  18:32:39  -4.80  -4.63   -14.076585    0      1      
iter:  36  18:32:45  -4.78  -4.78   -14.076459    0      1      
iter:  37  18:32:50  -5.09  -4.94   -14.076330    0      1      
iter:  38  18:32:56  -5.09  -5.05   -14.076427    0      1      
iter:  39  18:33:01  -5.36  -5.44   -14.076446    0      1      
iter:  40  18:33:07  -5.38  -5.53   -14.076434    0      1      
iter:  41  18:33:12  -5.64  -5.44   -14.076432    0      1      
iter:  42  18:33:18  -5.66  -5.32   -14.076438    0      1      
iter:  43  18:33:24  -5.92  -5.26   -14.076419    0      1      
iter:  44  18:33:29  -5.93  -5.27   -14.076422    0      1      
iter:  45  18:33:35  -6.20  -5.26   -14.076461    0      1      
iter:  46  18:33:40  -6.23  -5.18   -14.076402    0      1      
iter:  47  18:33:46  -6.44  -5.27   -14.076434    0      1      
iter:  48  18:33:53  -6.54  -5.24   -14.076438    0      1      
iter:  49  18:33:59  -6.71  -5.22   -14.076426    0      1      
iter:  50  18:34:05  -6.80  -5.26   -14.076457    0      1      
iter:  51  18:34:10  -7.03  -5.33   -14.076486    0      1      
iter:  52  18:34:16  -7.09  -5.51   -14.076469    0      1      
iter:  53  18:34:23  -7.28  -5.82   -14.076431    0      1      
iter:  54  18:34:29  -7.38  -5.95   -14.076418    0      1      
iter:  55  18:34:34  -7.57  -6.30   -14.076423    0      1      

Converged after 55 iterations.

Dipole moment: (-0.883570, 1.217363, -0.000000) |e|*Ang

Energy contributions relative to reference atoms: (reference = -412395.464894)

Kinetic:        +32.585005
Potential:      -26.445722
External:        +0.000000
XC:             -20.107093
Entropy (-ST):   +0.000000
Local:           -0.108614
--------------------------
Free energy:    -14.076423
Extrapolated:   -14.076423

Fermi level: -4.80560

 Band  Eigenvalues  Occupancy
    0    -64.81205    2.00000
    1    -34.38650    2.00000
    2    -34.04338    2.00000
    3    -34.04019    2.00000
    4    -15.82316    2.00000
    5    -12.16201    2.00000
    6     -6.80368    2.00000
    7     -5.68108    2.00000
    8     -5.43406    2.00000
    9     -5.16533    2.00000
   10     -4.80560    1.00000
   11     -3.34748    0.00000
   12     -2.92238    0.00000
   13     -1.14830    0.00000
   14     -0.37320    0.00000
   15      0.80028    0.00000
   16      1.06156    0.00000
   17      1.72855    0.00000
   18      2.55062    0.00000
   19      2.68980    0.00000
   20      3.20275    0.00000

Writing to 3_57799_Pm_PBE_yz0_0799.gpw (mode='all')

Timing:                              incl.     excl.
-----------------------------------------------------------
Hamiltonian:                         9.270     0.000   0.0% |
 Atomic:                             0.205     0.001   0.0% |
  XC Correction:                     0.204     0.204   0.1% |
 Calculate atomic Hamiltonians:      0.009     0.009   0.0% |
 Communicate:                        0.000     0.000   0.0% |
 Hartree integrate/restrict:         0.040     0.040   0.0% |
 Initialize Hamiltonian:             0.000     0.000   0.0% |
 Poisson:                            6.788     6.788   1.8% ||
 XC 3D grid:                         2.217     2.217   0.6% |
 vbar:                               0.011     0.011   0.0% |
LCAO initialization:                 0.857     0.597   0.2% |
 LCAO eigensolver:                   0.077     0.000   0.0% |
  Calculate projections:             0.000     0.000   0.0% |
  DenseAtomicCorrection:             0.000     0.000   0.0% |
  Distribute overlap matrix:         0.000     0.000   0.0% |
  Orbital Layouts:                   0.000     0.000   0.0% |
  Potential matrix:                  0.077     0.077   0.0% |
 LCAO to grid:                       0.179     0.179   0.0% |
 Set positions (LCAO WFS):           0.004     0.000   0.0% |
  Basic WFS set positions:           0.000     0.000   0.0% |
  Basis functions set positions:     0.000     0.000   0.0% |
  TCI: Calculate S, T, P:            0.003     0.003   0.0% |
SCF-cycle:                         355.846     0.022   0.0% |
 Davidson:                         151.045    24.181   6.6% |--|
  Apply hamiltonian:                 9.925     9.925   2.7% ||
  Subspace diag:                    45.227     0.007   0.0% |
   calc_h_matrix:                   22.456    12.438   3.4% ||
    Apply hamiltonian:              10.019    10.019   2.7% ||
   diagonalize:                      0.013     0.013   0.0% |
   rotate_psi:                      22.750    22.750   6.2% |-|
  calc. matrices:                   49.891    39.906  10.9% |---|
   Apply hamiltonian:                9.984     9.984   2.7% ||
  diagonalize:                       0.044     0.044   0.0% |
  rotate_psi:                       21.777    21.777   5.9% |-|
 Density:                            4.872     0.001   0.0% |
  Atomic density matrices:           0.037     0.037   0.0% |
  Mix:                               3.414     3.414   0.9% |
  Multipole moments:                 0.010     0.010   0.0% |
  Pseudo density:                    1.411     1.410   0.4% |
   Symmetrize density:               0.001     0.001   0.0% |
 Hamiltonian:                      199.659     0.006   0.0% |
  Atomic:                           10.905     0.049   0.0% |
   XC Correction:                   10.856    10.856   3.0% ||
  Calculate atomic Hamiltonians:     0.477     0.477   0.1% |
  Communicate:                       0.000     0.000   0.0% |
  Hartree integrate/restrict:        2.252     2.252   0.6% |
  Poisson:                          66.376    66.376  18.1% |------|
  XC 3D grid:                      119.183   119.183  32.5% |------------|
  vbar:                              0.459     0.459   0.1% |
 Orthonormalize:                     0.247     0.000   0.0% |
  calc_s_matrix:                     0.096     0.096   0.0% |
  inverse-cholesky:                  0.000     0.000   0.0% |
  projections:                       0.030     0.030   0.0% |
  rotate_psi_s:                      0.121     0.121   0.0% |
Set symmetry:                        0.001     0.001   0.0% |
Other:                               1.140     1.140   0.3% |
-----------------------------------------------------------
Total:                                       367.114 100.0%

Memory usage: 604.50 MiB
Date: Mon Aug 20 18:34:34 2018
