
  ___ ___ ___ _ _ _  
 |   |   |_  | | | | 
 | | | | | . | | | | 
 |__ |  _|___|_____|  1.4.0
 |___|_|             

User:   ???@3fe09ff0504a
Date:   Mon Aug 20 18:58:46 2018
Arch:   x86_64
Pid:    1620
Python: 3.7.0
gpaw:   /app/gpaw/software/venv/lib/python3.7/site-packages/gpaw
_gpaw:  /app/gpaw/software/venv/lib/python3.7/site-packages/
        _gpaw.cpython-37m-x86_64-linux-gnu.so
ase:    /app/gpaw/software/venv/lib/python3.7/site-packages/ase (version 3.16.2)
numpy:  /app/gpaw/software/venv/lib/python3.7/site-packages/numpy (version 1.15.0)
scipy:  /app/gpaw/software/venv/lib/python3.7/site-packages/scipy (version 1.1.0)
units:  Angstrom and eV
cores:  1

Input parameters:
  gpts: [72 64 72]
  maxiter: 150
  mixer: {backend: pulay,
          beta: None,
          method: separate,
          nmaxold: None,
          weight: None}
  xc: PBE

System changes: positions, numbers, cell, pbc, initial_charges, initial_magmoms 

Initialize ...

Hf-setup:
  name: Hafnium
  id: d03a45b6fa1dd7f07e443d1513edf499
  Z: 72
  valence: 12
  core: 60
  charge: 0.0
  file: /app/gpaw/datasets/Hf.PBE
  cutoffs: 1.30(comp), 2.36(filt), 4.02(core), lmax=2
  valence states:
                energy  radius
    5s(2.00)   -66.831   1.397
    6s(2.00)    -5.097   1.397
    5p(6.00)   -35.599   1.307
    6p(0.00)    -1.401   1.307
    5d(2.00)    -2.699   1.334
    *d          24.513   1.334

  Using partial waves for Hf as LCAO basis

N-setup:
  name: Nitrogen
  id: 45c8c9c739e7b131496b9fd2deb94bff
  Z: 7
  valence: 5
  core: 2
  charge: 0.0
  file: /app/gpaw/datasets/N.PBE
  cutoffs: 0.58(comp), 1.11(filt), 0.96(core), lmax=2
  valence states:
                energy  radius
    2s(2.00)   -18.583   0.603
    2p(3.00)    -7.089   0.529
    *s           8.629   0.603
    *p          20.123   0.529
    *d           0.000   0.577

  Using partial waves for N as LCAO basis

C-setup:
  name: Carbon
  id: 2f012631b351e3618121587a96c50fca
  Z: 6
  valence: 4
  core: 2
  charge: 0.0
  file: /app/gpaw/datasets/C.PBE
  cutoffs: 0.64(comp), 1.14(filt), 1.14(core), lmax=2
  valence states:
                energy  radius
    2s(2.00)   -13.751   0.635
    2p(2.00)    -5.285   0.635
    *s          13.461   0.635
    *p          21.927   0.635
    *d           0.000   0.635

  Using partial waves for C as LCAO basis

Reference energy: -412395.464894

Spin-paired calculation

Occupation numbers:
  Fermi-Dirac: width=0.0000 eV

Convergence criteria:
  Maximum total energy change: 0.0005 eV / electron
  Maximum integral of absolute density change: 0.0001 electrons
  Maximum integral of absolute eigenstate change: 4e-08 eV^2
  Maximum number of iterations: 150

Symmetries present (total): 1

  ( 1  0  0)
  ( 0  1  0)
  ( 0  0  1)

1 k-point (Gamma)
1 k-point in the irreducible part of the Brillouin zone
       k-points in crystal coordinates                weights
   0:     0.00000000    0.00000000    0.00000000          1/1

Wave functions: Uniform real-space grid
  Kinetic energy operator: 6*3+1=19 point O(h^6) finite-difference Laplacian
  ScaLapack parameters: grid=1x1, blocksize=None 

Eigensolver
   Davidson(niter=1, smin=None, normalize=True) 

Densities:
  Coarse grid: 72*64*72 grid
  Fine grid: 144*128*144 grid
  Total Charge: 0.000000 

Density mixing:
  Method: separate
  Backend: pulay
  Linear mixing parameter: 0.25
  Mixing with 3 old densities
  No damping of long wave oscillations 

Hamiltonian:
  XC and Coulomb potentials evaluated on a 144*128*144 grid
  Using the PBE Exchange-Correlation functional
  Interpolation: tri-quintic (5. degree polynomial)
  Poisson solver: Jacobi solver with 5 multi-grid levels
    Coarsest grid: 9 x 8 x 9 points
    Stencil: 6*3+1=19 point O(h^6) finite-difference Laplacian
    Max iterations: 1000
    Tolerance: 2.000000e-10 

Memory estimate:
  Process memory now: 616.77 MiB
  Calculator: 325.36 MiB
    Density: 113.90 MiB
      Arrays: 64.29 MiB
      Localized functions: 35.07 MiB
      Mixer: 14.54 MiB
    Hamiltonian: 92.51 MiB
      Arrays: 42.05 MiB
      XC: 0.00 MiB
      Poisson: 48.10 MiB
      vbar: 2.35 MiB
    Wavefunctions: 118.96 MiB
      Arrays psit_nG: 50.88 MiB
      Eigensolver: 63.03 MiB
      Projections: 0.01 MiB
      Projectors: 5.04 MiB

Total number of cores used: 1

Number of atoms: 3
Number of atomic orbitals: 21
Number of bands in calculation: 21
Bands to converge: occupied states only
Number of valence electrons: 21

... initialized

Initializing position-dependent things.

Density initialized from atomic densities
Creating initial wave functions:
  21 bands from LCAO basis set

      .--------------------.  
     /|                    |  
    / |                    |  
   /  |                    |  
  /   |                    |  
 *    |                    |  
 |    |                    |  
 |    |     Hf   C         |  
 |    |    N               |  
 |    |                    |  
 |    .--------------------.  
 |   /                    /   
 |  /                    /    
 | /                    /     
 |/                    /      
 *--------------------*       

Positions:
   0 Hf     3.385050    4.921250    4.250000    ( 0.0000,  0.0000,  0.0000)
   1 N      3.385050    3.078750    4.250000    ( 0.0000,  0.0000,  0.0000)
   2 C      5.114950    4.791250    4.250000    ( 0.0000,  0.0000,  0.0000)

Unit cell:
           periodic     x           y           z      points  spacing
  1. axis:    no     8.500000    0.000000    0.000000    72     0.1181
  2. axis:    no     0.000000    8.000000    0.000000    64     0.1250
  3. axis:    no     0.000000    0.000000    8.500000    72     0.1181

  Lengths:   8.500000   8.000000   8.500000
  Angles:   90.000000  90.000000  90.000000

Effective grid spacing dv^(1/3) = 0.1203

                     log10-error:    total        iterations:
           time      wfs    density  energy       fermi  poisson
iter:   1  18:59:01  +2.42   +inf   -18.197001    0      15     
iter:   2  18:59:03  +1.19   +inf   -18.814525    0             
iter:   3  18:59:06  +0.61   +inf   -19.012146    0             
iter:   4  18:59:17  +0.62  -0.72   -15.577851    0      11     
iter:   5  18:59:26  +0.81  -0.83   -15.006786    0      9      
iter:   6  18:59:36  +0.51  -0.97   -14.208449    0      10     
iter:   7  18:59:45  +0.26  -1.22   -14.099734    0      9      
iter:   8  18:59:54  +0.46  -1.49   -14.105811    0      8      
iter:   9  19:00:03  -0.11  -1.85   -14.125308    0      7      
iter:  10  19:00:12  +0.04  -2.05   -14.131730    0      5      
iter:  11  19:00:20  -0.61  -2.24   -14.135220    0      5      
iter:  12  19:00:28  -0.55  -2.36   -14.136801    0      5      
iter:  13  19:00:35  -1.18  -2.71   -14.138255    0      4      
iter:  14  19:00:44  -0.91  -2.69   -14.139407    0      5      
iter:  15  19:00:51  -1.67  -3.13   -14.139881    0      4      
iter:  16  19:00:58  -1.31  -3.29   -14.140145    0      3      
iter:  17  19:01:04  -2.06  -3.24   -14.140675    0      3      
iter:  18  19:01:11  -1.71  -3.32   -14.140781    0      3      
iter:  19  19:01:18  -2.39  -3.33   -14.140940    0      4      
iter:  20  19:01:24  -2.19  -3.58   -14.140795    0      3      
iter:  21  19:01:31  -2.68  -3.62   -14.141181    0      3      
iter:  22  19:01:37  -2.59  -4.04   -14.140765    0      2      
iter:  23  19:01:43  -2.94  -4.25   -14.140950    0      2      
iter:  24  19:01:48  -2.90  -4.25   -14.141057    0      1      
iter:  25  19:01:54  -3.23  -4.13   -14.140903    0      1      
iter:  26  19:01:59  -3.18  -4.00   -14.141157    0      1      
iter:  27  19:02:05  -3.52  -3.97   -14.141026    0      2      
iter:  28  19:02:11  -3.47  -3.94   -14.140755    0      2      
iter:  29  19:02:17  -3.73  -3.78   -14.141068    0      2      
iter:  30  19:02:23  -3.75  -3.80   -14.141136    0      2      
iter:  31  19:02:29  -4.16  -3.88   -14.141239    0      2      
iter:  32  19:02:35  -4.12  -3.93   -14.141137    0      2      
iter:  33  19:02:41  -4.50  -4.26   -14.141172    0      1      
iter:  34  19:02:47  -4.43  -4.36   -14.141086    0      2      
iter:  35  19:02:53  -4.76  -4.89   -14.140928    0      1      
iter:  36  19:02:58  -4.75  -5.08   -14.140925    0      1      
iter:  37  19:03:04  -5.08  -5.09   -14.140938    0      1      
iter:  38  19:03:09  -5.03  -5.12   -14.140975    0      1      
iter:  39  19:03:15  -5.36  -5.12   -14.140940    0      1      
iter:  40  19:03:21  -5.30  -5.35   -14.140963    0      1      
iter:  41  19:03:26  -5.64  -5.87   -14.140970    0      1      
iter:  42  19:03:32  -5.58  -5.83   -14.140961    0      1      
iter:  43  19:03:38  -5.93  -5.63   -14.140963    0      1      
iter:  44  19:03:43  -5.86  -5.49   -14.140956    0      1      
iter:  45  19:03:48  -6.21  -5.39   -14.140956    0      1      
iter:  46  19:03:54  -6.13  -5.35   -14.140971    0      1      
iter:  47  19:04:00  -6.49  -5.34   -14.140901    0      1      
iter:  48  19:04:05  -6.38  -5.13   -14.140959    0      1      
iter:  49  19:04:11  -6.75  -5.15   -14.141076    0      1      
iter:  50  19:04:16  -6.67  -5.71   -14.140984    0      1      
iter:  51  19:04:22  -7.09  -5.86   -14.140960    0      1      
iter:  52  19:04:27  -6.99  -5.96   -14.140950    0      1      
iter:  53  19:04:33  -7.38  -6.08   -14.140941    0      1      
iter:  54  19:04:38  -7.28  -6.61   -14.140952    0      1      
iter:  55  19:04:44  -7.65  -6.67   -14.140956    0      1      

Converged after 55 iterations.

Dipole moment: (-0.882702, 1.277764, -0.000000) |e|*Ang

Energy contributions relative to reference atoms: (reference = -412395.464894)

Kinetic:        +27.723923
Potential:      -22.489073
External:        +0.000000
XC:             -19.239560
Entropy (-ST):   +0.000000
Local:           -0.136246
--------------------------
Free energy:    -14.140956
Extrapolated:   -14.140956

Fermi level: -4.85455

 Band  Eigenvalues  Occupancy
    0    -64.95456    2.00000
    1    -34.49756    2.00000
    2    -34.17971    2.00000
    3    -34.05407    2.00000
    4    -15.82921    2.00000
    5    -12.16806    2.00000
    6     -6.68009    2.00000
    7     -5.60014    2.00000
    8     -5.38726    2.00000
    9     -5.07524    2.00000
   10     -4.85455    1.00000
   11     -3.30347    0.00000
   12     -2.97045    0.00000
   13     -1.21217    0.00000
   14     -0.45364    0.00000
   15      0.57393    0.00000
   16      0.92641    0.00000
   17      1.58867    0.00000
   18      2.48161    0.00000
   19      2.58111    0.00000
   20      3.19551    0.00000

Writing to 3_57799_Pm_PBE_yz0_1299.gpw (mode='all')

Timing:                              incl.     excl.
-----------------------------------------------------------
Hamiltonian:                         9.502     0.000   0.0% |
 Atomic:                             0.204     0.001   0.0% |
  XC Correction:                     0.203     0.203   0.1% |
 Calculate atomic Hamiltonians:      0.009     0.009   0.0% |
 Communicate:                        0.000     0.000   0.0% |
 Hartree integrate/restrict:         0.044     0.044   0.0% |
 Initialize Hamiltonian:             0.000     0.000   0.0% |
 Poisson:                            6.981     6.981   2.0% ||
 XC 3D grid:                         2.252     2.252   0.6% |
 vbar:                               0.012     0.012   0.0% |
LCAO initialization:                 0.857     0.594   0.2% |
 LCAO eigensolver:                   0.080     0.000   0.0% |
  Calculate projections:             0.000     0.000   0.0% |
  DenseAtomicCorrection:             0.000     0.000   0.0% |
  Distribute overlap matrix:         0.000     0.000   0.0% |
  Orbital Layouts:                   0.000     0.000   0.0% |
  Potential matrix:                  0.079     0.079   0.0% |
 LCAO to grid:                       0.180     0.180   0.1% |
 Set positions (LCAO WFS):           0.004     0.000   0.0% |
  Basic WFS set positions:           0.000     0.000   0.0% |
  Basis functions set positions:     0.000     0.000   0.0% |
  TCI: Calculate S, T, P:            0.003     0.003   0.0% |
SCF-cycle:                         345.833     0.022   0.0% |
 Davidson:                         142.679    23.455   6.6% |--|
  Apply hamiltonian:                 9.613     9.613   2.7% ||
  Subspace diag:                    42.031     0.006   0.0% |
   calc_h_matrix:                   20.893    11.200   3.1% ||
    Apply hamiltonian:               9.693     9.693   2.7% ||
   diagonalize:                      0.013     0.013   0.0% |
   rotate_psi:                      21.118    21.118   5.9% |-|
  calc. matrices:                   46.051    36.419  10.2% |---|
   Apply hamiltonian:                9.632     9.632   2.7% ||
  diagonalize:                       0.044     0.044   0.0% |
  rotate_psi:                       21.485    21.485   6.0% |-|
 Density:                            4.918     0.001   0.0% |
  Atomic density matrices:           0.037     0.037   0.0% |
  Mix:                               3.403     3.403   1.0% |
  Multipole moments:                 0.010     0.010   0.0% |
  Pseudo density:                    1.467     1.466   0.4% |
   Symmetrize density:               0.001     0.001   0.0% |
 Hamiltonian:                      197.971     0.006   0.0% |
  Atomic:                           10.522     0.047   0.0% |
   XC Correction:                   10.475    10.475   2.9% ||
  Calculate atomic Hamiltonians:     0.463     0.463   0.1% |
  Communicate:                       0.000     0.000   0.0% |
  Hartree integrate/restrict:        2.066     2.066   0.6% |
  Poisson:                          66.281    66.281  18.5% |------|
  XC 3D grid:                      118.183   118.183  33.1% |------------|
  vbar:                              0.450     0.450   0.1% |
 Orthonormalize:                     0.243     0.000   0.0% |
  calc_s_matrix:                     0.096     0.096   0.0% |
  inverse-cholesky:                  0.000     0.000   0.0% |
  projections:                       0.030     0.030   0.0% |
  rotate_psi_s:                      0.116     0.116   0.0% |
Set symmetry:                        0.001     0.001   0.0% |
Other:                               1.236     1.236   0.3% |
-----------------------------------------------------------
Total:                                       357.430 100.0%

Memory usage: 619.11 MiB
Date: Mon Aug 20 19:04:44 2018
