
  ___ ___ ___ _ _ _  
 |   |   |_  | | | | 
 | | | | | . | | | | 
 |__ |  _|___|_____|  1.4.0
 |___|_|             

User:   ???@3fe09ff0504a
Date:   Mon Aug 20 19:04:44 2018
Arch:   x86_64
Pid:    1620
Python: 3.7.0
gpaw:   /app/gpaw/software/venv/lib/python3.7/site-packages/gpaw
_gpaw:  /app/gpaw/software/venv/lib/python3.7/site-packages/
        _gpaw.cpython-37m-x86_64-linux-gnu.so
ase:    /app/gpaw/software/venv/lib/python3.7/site-packages/ase (version 3.16.2)
numpy:  /app/gpaw/software/venv/lib/python3.7/site-packages/numpy (version 1.15.0)
scipy:  /app/gpaw/software/venv/lib/python3.7/site-packages/scipy (version 1.1.0)
units:  Angstrom and eV
cores:  1

Input parameters:
  gpts: [72 64 72]
  maxiter: 150
  mixer: {backend: pulay,
          beta: None,
          method: separate,
          nmaxold: None,
          weight: None}
  xc: PBE

System changes: positions, numbers, cell, pbc, initial_charges, initial_magmoms 

Initialize ...

Hf-setup:
  name: Hafnium
  id: d03a45b6fa1dd7f07e443d1513edf499
  Z: 72
  valence: 12
  core: 60
  charge: 0.0
  file: /app/gpaw/datasets/Hf.PBE
  cutoffs: 1.30(comp), 2.36(filt), 4.02(core), lmax=2
  valence states:
                energy  radius
    5s(2.00)   -66.831   1.397
    6s(2.00)    -5.097   1.397
    5p(6.00)   -35.599   1.307
    6p(0.00)    -1.401   1.307
    5d(2.00)    -2.699   1.334
    *d          24.513   1.334

  Using partial waves for Hf as LCAO basis

N-setup:
  name: Nitrogen
  id: 45c8c9c739e7b131496b9fd2deb94bff
  Z: 7
  valence: 5
  core: 2
  charge: 0.0
  file: /app/gpaw/datasets/N.PBE
  cutoffs: 0.58(comp), 1.11(filt), 0.96(core), lmax=2
  valence states:
                energy  radius
    2s(2.00)   -18.583   0.603
    2p(3.00)    -7.089   0.529
    *s           8.629   0.603
    *p          20.123   0.529
    *d           0.000   0.577

  Using partial waves for N as LCAO basis

C-setup:
  name: Carbon
  id: 2f012631b351e3618121587a96c50fca
  Z: 6
  valence: 4
  core: 2
  charge: 0.0
  file: /app/gpaw/datasets/C.PBE
  cutoffs: 0.64(comp), 1.14(filt), 1.14(core), lmax=2
  valence states:
                energy  radius
    2s(2.00)   -13.751   0.635
    2p(2.00)    -5.285   0.635
    *s          13.461   0.635
    *p          21.927   0.635
    *d           0.000   0.635

  Using partial waves for C as LCAO basis

Reference energy: -412395.464894

Spin-paired calculation

Occupation numbers:
  Fermi-Dirac: width=0.0000 eV

Convergence criteria:
  Maximum total energy change: 0.0005 eV / electron
  Maximum integral of absolute density change: 0.0001 electrons
  Maximum integral of absolute eigenstate change: 4e-08 eV^2
  Maximum number of iterations: 150

Symmetries present (total): 1

  ( 1  0  0)
  ( 0  1  0)
  ( 0  0  1)

1 k-point (Gamma)
1 k-point in the irreducible part of the Brillouin zone
       k-points in crystal coordinates                weights
   0:     0.00000000    0.00000000    0.00000000          1/1

Wave functions: Uniform real-space grid
  Kinetic energy operator: 6*3+1=19 point O(h^6) finite-difference Laplacian
  ScaLapack parameters: grid=1x1, blocksize=None 

Eigensolver
   Davidson(niter=1, smin=None, normalize=True) 

Densities:
  Coarse grid: 72*64*72 grid
  Fine grid: 144*128*144 grid
  Total Charge: 0.000000 

Density mixing:
  Method: separate
  Backend: pulay
  Linear mixing parameter: 0.25
  Mixing with 3 old densities
  No damping of long wave oscillations 

Hamiltonian:
  XC and Coulomb potentials evaluated on a 144*128*144 grid
  Using the PBE Exchange-Correlation functional
  Interpolation: tri-quintic (5. degree polynomial)
  Poisson solver: Jacobi solver with 5 multi-grid levels
    Coarsest grid: 9 x 8 x 9 points
    Stencil: 6*3+1=19 point O(h^6) finite-difference Laplacian
    Max iterations: 1000
    Tolerance: 2.000000e-10 

Memory estimate:
  Process memory now: 619.11 MiB
  Calculator: 325.36 MiB
    Density: 113.90 MiB
      Arrays: 64.29 MiB
      Localized functions: 35.07 MiB
      Mixer: 14.54 MiB
    Hamiltonian: 92.51 MiB
      Arrays: 42.05 MiB
      XC: 0.00 MiB
      Poisson: 48.10 MiB
      vbar: 2.35 MiB
    Wavefunctions: 118.96 MiB
      Arrays psit_nG: 50.88 MiB
      Eigensolver: 63.03 MiB
      Projections: 0.01 MiB
      Projectors: 5.04 MiB

Total number of cores used: 1

Number of atoms: 3
Number of atomic orbitals: 21
Number of bands in calculation: 21
Bands to converge: occupied states only
Number of valence electrons: 21

... initialized

Initializing position-dependent things.

Density initialized from atomic densities
Creating initial wave functions:
  21 bands from LCAO basis set

      .--------------------.  
     /|                    |  
    / |                    |  
   /  |                    |  
  /   |                    |  
 *    |                    |  
 |    |                    |  
 |    |     Hf   C         |  
 |    |    N               |  
 |    |                    |  
 |    .--------------------.  
 |   /                    /   
 |  /                    /    
 | /                    /     
 |/                    /      
 *--------------------*       

Positions:
   0 Hf     3.385050    4.926250    4.250000    ( 0.0000,  0.0000,  0.0000)
   1 N      3.385050    3.073750    4.250000    ( 0.0000,  0.0000,  0.0000)
   2 C      5.114950    4.786250    4.250000    ( 0.0000,  0.0000,  0.0000)

Unit cell:
           periodic     x           y           z      points  spacing
  1. axis:    no     8.500000    0.000000    0.000000    72     0.1181
  2. axis:    no     0.000000    8.000000    0.000000    64     0.1250
  3. axis:    no     0.000000    0.000000    8.500000    72     0.1181

  Lengths:   8.500000   8.000000   8.500000
  Angles:   90.000000  90.000000  90.000000

Effective grid spacing dv^(1/3) = 0.1203

                     log10-error:    total        iterations:
           time      wfs    density  energy       fermi  poisson
iter:   1  19:04:57  +2.42   +inf   -18.203573    0      15     
iter:   2  19:04:59  +1.19   +inf   -18.814384    0             
iter:   3  19:05:01  +0.61   +inf   -19.010271    0             
iter:   4  19:05:10  +0.62  -0.72   -15.562684    0      11     
iter:   5  19:05:19  +0.82  -0.83   -15.015185    0      9      
iter:   6  19:05:28  +0.51  -0.97   -14.215911    0      10     
iter:   7  19:05:36  +0.26  -1.22   -14.105300    0      9      
iter:   8  19:05:44  +0.45  -1.48   -14.109434    0      8      
iter:   9  19:05:52  -0.09  -1.86   -14.129024    0      7      
iter:  10  19:05:58  +0.03  -2.06   -14.135773    0      5      
iter:  11  19:06:05  -0.59  -2.24   -14.139392    0      5      
iter:  12  19:06:12  -0.55  -2.35   -14.140995    0      5      
iter:  13  19:06:18  -1.17  -2.73   -14.142437    0      4      
iter:  14  19:06:25  -0.89  -2.69   -14.143626    0      5      
iter:  15  19:06:31  -1.66  -3.10   -14.144193    0      4      
iter:  16  19:06:37  -1.32  -3.31   -14.144471    0      3      
iter:  17  19:06:43  -2.04  -3.32   -14.144935    0      3      
iter:  18  19:06:49  -1.71  -3.38   -14.145020    0      3      
iter:  19  19:06:54  -2.37  -3.36   -14.144875    0      1      
iter:  20  19:07:00  -2.04  -3.25   -14.145256    0      3      
iter:  21  19:07:06  -2.70  -3.30   -14.145343    0      3      
iter:  22  19:07:12  -2.44  -3.37   -14.145450    0      3      
iter:  23  19:07:18  -3.05  -3.55   -14.145441    0      3      
iter:  24  19:07:23  -2.88  -3.69   -14.145487    0      2      
iter:  25  19:07:29  -3.39  -3.93   -14.145459    0      2      
iter:  26  19:07:34  -3.24  -4.13   -14.145324    0      2      
iter:  27  19:07:40  -3.71  -4.37   -14.145233    0      2      
iter:  28  19:07:45  -3.55  -4.48   -14.145336    0      1      
iter:  29  19:07:50  -4.02  -4.62   -14.145300    0      1      
iter:  30  19:07:55  -3.87  -4.56   -14.145253    0      1      
iter:  31  19:08:00  -4.32  -4.49   -14.145267    0      1      
iter:  32  19:08:05  -4.18  -4.42   -14.145278    0      1      
iter:  33  19:08:10  -4.63  -4.39   -14.145221    0      1      
iter:  34  19:08:15  -4.48  -4.35   -14.145184    0      1      
iter:  35  19:08:20  -4.90  -4.27   -14.145486    0      1      
iter:  36  19:08:25  -4.85  -4.39   -14.145459    0      1      
iter:  37  19:08:30  -5.25  -4.54   -14.145498    0      1      
iter:  38  19:08:35  -5.16  -4.73   -14.145412    0      1      
iter:  39  19:08:40  -5.54  -5.26   -14.145271    0      1      
iter:  40  19:08:45  -5.49  -5.29   -14.145252    0      1      
iter:  41  19:08:50  -5.83  -5.54   -14.145221    0      1      
iter:  42  19:08:55  -5.76  -5.99   -14.145237    0      1      
iter:  43  19:09:00  -6.12  -5.92   -14.145244    0      1      
iter:  44  19:09:06  -6.05  -5.80   -14.145240    0      1      
iter:  45  19:09:11  -6.41  -5.66   -14.145243    0      1      
iter:  46  19:09:16  -6.34  -5.65   -14.145243    0      1      
iter:  47  19:09:21  -6.69  -5.67   -14.145238    0      1      
iter:  48  19:09:26  -6.64  -5.42   -14.145244    0      1      
iter:  49  19:09:31  -6.93  -5.67   -14.145241    0      1      
iter:  50  19:09:36  -6.93  -5.48   -14.145250    0      1      
iter:  51  19:09:41  -7.20  -5.68   -14.145255    0      1      
iter:  52  19:09:46  -7.22  -5.99   -14.145256    0      1      
iter:  53  19:09:51  -7.49  -6.12   -14.145253    0      1      

Converged after 53 iterations.

Dipole moment: (-0.882239, 1.289262, -0.000000) |e|*Ang

Energy contributions relative to reference atoms: (reference = -412395.464894)

Kinetic:        +26.809128
Potential:      -21.743035
External:        +0.000000
XC:             -19.070317
Entropy (-ST):   +0.000000
Local:           -0.141028
--------------------------
Free energy:    -14.145253
Extrapolated:   -14.145253

Fermi level: -4.86432

 Band  Eigenvalues  Occupancy
    0    -64.98372    2.00000
    1    -34.51971    2.00000
    2    -34.20709    2.00000
    3    -34.06098    2.00000
    4    -15.82843    2.00000
    5    -12.16993    2.00000
    6     -6.65688    2.00000
    7     -5.58884    2.00000
    8     -5.37873    2.00000
    9     -5.05413    2.00000
   10     -4.86432    1.00000
   11     -3.29475    0.00000
   12     -2.97999    0.00000
   13     -1.22515    0.00000
   14     -0.47015    0.00000
   15      0.52943    0.00000
   16      0.89912    0.00000
   17      1.55761    0.00000
   18      2.46702    0.00000
   19      2.56402    0.00000
   20      3.19404    0.00000

Writing to 3_57799_Pm_PBE_yz0_1399.gpw (mode='all')

Timing:                              incl.     excl.
-----------------------------------------------------------
Hamiltonian:                         8.914     0.000   0.0% |
 Atomic:                             0.196     0.002   0.0% |
  XC Correction:                     0.194     0.194   0.1% |
 Calculate atomic Hamiltonians:      0.009     0.009   0.0% |
 Communicate:                        0.000     0.000   0.0% |
 Hartree integrate/restrict:         0.035     0.035   0.0% |
 Initialize Hamiltonian:             0.000     0.000   0.0% |
 Poisson:                            6.483     6.483   2.1% ||
 XC 3D grid:                         2.179     2.179   0.7% |
 vbar:                               0.011     0.011   0.0% |
LCAO initialization:                 0.810     0.558   0.2% |
 LCAO eigensolver:                   0.078     0.000   0.0% |
  Calculate projections:             0.000     0.000   0.0% |
  DenseAtomicCorrection:             0.000     0.000   0.0% |
  Distribute overlap matrix:         0.000     0.000   0.0% |
  Orbital Layouts:                   0.000     0.000   0.0% |
  Potential matrix:                  0.077     0.077   0.0% |
 LCAO to grid:                       0.171     0.171   0.1% |
 Set positions (LCAO WFS):           0.004     0.000   0.0% |
  Basic WFS set positions:           0.000     0.000   0.0% |
  Basis functions set positions:     0.000     0.000   0.0% |
  TCI: Calculate S, T, P:            0.003     0.003   0.0% |
SCF-cycle:                         296.611     0.021   0.0% |
 Davidson:                         110.800    20.138   6.5% |--|
  Apply hamiltonian:                 8.533     8.533   2.8% ||
  Subspace diag:                    31.569     0.005   0.0% |
   calc_h_matrix:                   15.664     7.147   2.3% ||
    Apply hamiltonian:               8.517     8.517   2.8% ||
   diagonalize:                      0.012     0.012   0.0% |
   rotate_psi:                      15.888    15.888   5.2% |-|
  calc. matrices:                   34.628    26.114   8.5% |--|
   Apply hamiltonian:                8.514     8.514   2.8% ||
  diagonalize:                       0.042     0.042   0.0% |
  rotate_psi:                       15.890    15.890   5.2% |-|
 Density:                            4.022     0.001   0.0% |
  Atomic density matrices:           0.034     0.034   0.0% |
  Mix:                               2.899     2.899   0.9% |
  Multipole moments:                 0.009     0.009   0.0% |
  Pseudo density:                    1.079     1.079   0.4% |
   Symmetrize density:               0.001     0.001   0.0% |
 Hamiltonian:                      181.566     0.006   0.0% |
  Atomic:                            9.749     0.042   0.0% |
   XC Correction:                    9.707     9.707   3.2% ||
  Calculate atomic Hamiltonians:     0.433     0.433   0.1% |
  Communicate:                       0.000     0.000   0.0% |
  Hartree integrate/restrict:        1.709     1.709   0.6% |
  Poisson:                          59.551    59.551  19.4% |-------|
  XC 3D grid:                      109.800   109.800  35.7% |-------------|
  vbar:                              0.316     0.316   0.1% |
 Orthonormalize:                     0.202     0.000   0.0% |
  calc_s_matrix:                     0.075     0.075   0.0% |
  inverse-cholesky:                  0.000     0.000   0.0% |
  projections:                       0.028     0.028   0.0% |
  rotate_psi_s:                      0.098     0.098   0.0% |
Set symmetry:                        0.001     0.001   0.0% |
Other:                               1.119     1.119   0.4% |
-----------------------------------------------------------
Total:                                       307.455 100.0%

Memory usage: 619.85 MiB
Date: Mon Aug 20 19:09:51 2018
