
  ___ ___ ___ _ _ _  
 |   |   |_  | | | | 
 | | | | | . | | | | 
 |__ |  _|___|_____|  1.4.0
 |___|_|             

User:   ???@3fe09ff0504a
Date:   Mon Aug 20 18:40:36 2018
Arch:   x86_64
Pid:    1620
Python: 3.7.0
gpaw:   /app/gpaw/software/venv/lib/python3.7/site-packages/gpaw
_gpaw:  /app/gpaw/software/venv/lib/python3.7/site-packages/
        _gpaw.cpython-37m-x86_64-linux-gnu.so
ase:    /app/gpaw/software/venv/lib/python3.7/site-packages/ase (version 3.16.2)
numpy:  /app/gpaw/software/venv/lib/python3.7/site-packages/numpy (version 1.15.0)
scipy:  /app/gpaw/software/venv/lib/python3.7/site-packages/scipy (version 1.1.0)
units:  Angstrom and eV
cores:  1

Input parameters:
  gpts: [72 64 72]
  maxiter: 150
  mixer: {backend: pulay,
          beta: None,
          method: separate,
          nmaxold: None,
          weight: None}
  xc: PBE

System changes: positions, numbers, cell, pbc, initial_charges, initial_magmoms 

Initialize ...

Hf-setup:
  name: Hafnium
  id: d03a45b6fa1dd7f07e443d1513edf499
  Z: 72
  valence: 12
  core: 60
  charge: 0.0
  file: /app/gpaw/datasets/Hf.PBE
  cutoffs: 1.30(comp), 2.36(filt), 4.02(core), lmax=2
  valence states:
                energy  radius
    5s(2.00)   -66.831   1.397
    6s(2.00)    -5.097   1.397
    5p(6.00)   -35.599   1.307
    6p(0.00)    -1.401   1.307
    5d(2.00)    -2.699   1.334
    *d          24.513   1.334

  Using partial waves for Hf as LCAO basis

N-setup:
  name: Nitrogen
  id: 45c8c9c739e7b131496b9fd2deb94bff
  Z: 7
  valence: 5
  core: 2
  charge: 0.0
  file: /app/gpaw/datasets/N.PBE
  cutoffs: 0.58(comp), 1.11(filt), 0.96(core), lmax=2
  valence states:
                energy  radius
    2s(2.00)   -18.583   0.603
    2p(3.00)    -7.089   0.529
    *s           8.629   0.603
    *p          20.123   0.529
    *d           0.000   0.577

  Using partial waves for N as LCAO basis

C-setup:
  name: Carbon
  id: 2f012631b351e3618121587a96c50fca
  Z: 6
  valence: 4
  core: 2
  charge: 0.0
  file: /app/gpaw/datasets/C.PBE
  cutoffs: 0.64(comp), 1.14(filt), 1.14(core), lmax=2
  valence states:
                energy  radius
    2s(2.00)   -13.751   0.635
    2p(2.00)    -5.285   0.635
    *s          13.461   0.635
    *p          21.927   0.635
    *d           0.000   0.635

  Using partial waves for C as LCAO basis

Reference energy: -412395.464894

Spin-paired calculation

Occupation numbers:
  Fermi-Dirac: width=0.0000 eV

Convergence criteria:
  Maximum total energy change: 0.0005 eV / electron
  Maximum integral of absolute density change: 0.0001 electrons
  Maximum integral of absolute eigenstate change: 4e-08 eV^2
  Maximum number of iterations: 150

Symmetries present (total): 1

  ( 1  0  0)
  ( 0  1  0)
  ( 0  0  1)

1 k-point (Gamma)
1 k-point in the irreducible part of the Brillouin zone
       k-points in crystal coordinates                weights
   0:     0.00000000    0.00000000    0.00000000          1/1

Wave functions: Uniform real-space grid
  Kinetic energy operator: 6*3+1=19 point O(h^6) finite-difference Laplacian
  ScaLapack parameters: grid=1x1, blocksize=None 

Eigensolver
   Davidson(niter=1, smin=None, normalize=True) 

Densities:
  Coarse grid: 72*64*72 grid
  Fine grid: 144*128*144 grid
  Total Charge: 0.000000 

Density mixing:
  Method: separate
  Backend: pulay
  Linear mixing parameter: 0.25
  Mixing with 3 old densities
  No damping of long wave oscillations 

Hamiltonian:
  XC and Coulomb potentials evaluated on a 144*128*144 grid
  Using the PBE Exchange-Correlation functional
  Interpolation: tri-quintic (5. degree polynomial)
  Poisson solver: Jacobi solver with 5 multi-grid levels
    Coarsest grid: 9 x 8 x 9 points
    Stencil: 6*3+1=19 point O(h^6) finite-difference Laplacian
    Max iterations: 1000
    Tolerance: 2.000000e-10 

Memory estimate:
  Process memory now: 604.50 MiB
  Calculator: 325.36 MiB
    Density: 113.90 MiB
      Arrays: 64.29 MiB
      Localized functions: 35.07 MiB
      Mixer: 14.54 MiB
    Hamiltonian: 92.51 MiB
      Arrays: 42.05 MiB
      XC: 0.00 MiB
      Poisson: 48.10 MiB
      vbar: 2.35 MiB
    Wavefunctions: 118.96 MiB
      Arrays psit_nG: 50.88 MiB
      Eigensolver: 63.03 MiB
      Projections: 0.01 MiB
      Projectors: 5.04 MiB

Total number of cores used: 1

Number of atoms: 3
Number of atomic orbitals: 21
Number of bands in calculation: 21
Bands to converge: occupied states only
Number of valence electrons: 21

... initialized

Initializing position-dependent things.

Density initialized from atomic densities
Creating initial wave functions:
  21 bands from LCAO basis set

      .--------------------.  
     /|                    |  
    / |                    |  
   /  |                    |  
  /   |                    |  
 *    |                    |  
 |    |                    |  
 |    |     Hf   C         |  
 |    |    N               |  
 |    |                    |  
 |    .--------------------.  
 |   /                    /   
 |  /                    /    
 | /                    /     
 |/                    /      
 *--------------------*       

Positions:
   0 Hf     3.385050    4.906250    4.250000    ( 0.0000,  0.0000,  0.0000)
   1 N      3.385050    3.093750    4.250000    ( 0.0000,  0.0000,  0.0000)
   2 C      5.114950    4.806250    4.250000    ( 0.0000,  0.0000,  0.0000)

Unit cell:
           periodic     x           y           z      points  spacing
  1. axis:    no     8.500000    0.000000    0.000000    72     0.1181
  2. axis:    no     0.000000    8.000000    0.000000    64     0.1250
  3. axis:    no     0.000000    0.000000    8.500000    72     0.1181

  Lengths:   8.500000   8.000000   8.500000
  Angles:   90.000000  90.000000  90.000000

Effective grid spacing dv^(1/3) = 0.1203

                     log10-error:    total        iterations:
           time      wfs    density  energy       fermi  poisson
iter:   1  18:40:51  +2.41   +inf   -18.164676    0      15     
iter:   2  18:40:53  +1.20   +inf   -18.802997    0             
iter:   3  18:40:56  +0.62   +inf   -19.005911    0             
iter:   4  18:41:06  +0.63  -0.72   -15.607955    0      11     
iter:   5  18:41:15  +0.80  -0.83   -14.964429    0      9      
iter:   6  18:41:25  +0.52  -0.97   -14.168859    0      10     
iter:   7  18:41:35  +0.28  -1.22   -14.066865    0      9      
iter:   8  18:41:44  +0.49  -1.50   -14.078331    0      8      
iter:   9  18:41:52  -0.14  -1.82   -14.097184    0      7      
iter:  10  18:42:00  +0.08  -2.02   -14.102820    0      5      
iter:  11  18:42:08  -0.67  -2.24   -14.105912    0      5      
iter:  12  18:42:16  -0.55  -2.38   -14.107447    0      5      
iter:  13  18:42:23  -1.20  -2.68   -14.108885    0      4      
iter:  14  18:42:30  -0.94  -2.68   -14.109962    0      5      
iter:  15  18:42:37  -1.69  -3.08   -14.110173    0      4      
iter:  16  18:42:44  -1.31  -3.22   -14.110561    0      4      
iter:  17  18:42:51  -2.11  -3.16   -14.111046    0      3      
iter:  18  18:42:57  -1.72  -3.22   -14.111169    0      3      
iter:  19  18:43:05  -2.46  -3.25   -14.111391    0      5      
iter:  20  18:43:13  -2.34  -3.24   -14.110872    0      4      
iter:  21  18:43:19  -2.55  -3.57   -14.111139    0      2      
iter:  22  18:43:27  -2.70  -3.64   -14.111305    0      3      
iter:  23  18:43:34  -2.86  -3.73   -14.111339    0      3      
iter:  24  18:43:41  -3.01  -3.96   -14.111388    0      3      
iter:  25  18:43:47  -3.19  -4.48   -14.111383    0      1      
iter:  26  18:43:53  -3.29  -4.49   -14.111465    0      1      
iter:  27  18:43:59  -3.48  -4.43   -14.111168    0      1      
iter:  28  18:44:05  -3.57  -4.19   -14.111468    0      1      
iter:  29  18:44:10  -3.76  -4.21   -14.111480    0      1      
iter:  30  18:44:16  -3.86  -4.20   -14.111104    0      2      
iter:  31  18:44:23  -3.98  -3.90   -14.111384    0      3      
iter:  32  18:44:29  -4.22  -4.25   -14.111443    0      2      
iter:  33  18:44:35  -4.35  -4.54   -14.111445    0      2      
iter:  34  18:44:42  -4.52  -4.67   -14.111428    0      1      
iter:  35  18:44:47  -4.66  -4.76   -14.111312    0      1      
iter:  36  18:44:53  -4.83  -4.92   -14.111273    0      1      
iter:  37  18:44:59  -4.95  -5.24   -14.111279    0      1      
iter:  38  18:45:05  -5.13  -5.55   -14.111285    0      1      
iter:  39  18:45:11  -5.23  -5.51   -14.111295    0      1      
iter:  40  18:45:17  -5.41  -5.39   -14.111302    0      1      
iter:  41  18:45:22  -5.51  -5.34   -14.111298    0      1      
iter:  42  18:45:28  -5.69  -5.28   -14.111289    0      1      
iter:  43  18:45:34  -5.78  -5.17   -14.111289    0      1      
iter:  44  18:45:40  -5.96  -5.14   -14.111315    0      1      
iter:  45  18:45:46  -6.05  -5.15   -14.111325    0      1      
iter:  46  18:45:51  -6.26  -5.18   -14.111347    0      1      
iter:  47  18:45:57  -6.36  -5.31   -14.111310    0      1      
iter:  48  18:46:03  -6.52  -5.50   -14.111312    0      1      
iter:  49  18:46:09  -6.65  -5.65   -14.111301    0      1      
iter:  50  18:46:14  -6.80  -5.86   -14.111293    0      1      
iter:  51  18:46:20  -6.93  -5.90   -14.111290    0      1      
iter:  52  18:46:26  -7.06  -6.06   -14.111294    0      1      
iter:  53  18:46:32  -7.19  -6.26   -14.111293    0      1      
iter:  54  18:46:38  -7.32  -6.40   -14.111295    0      1      
iter:  55  18:46:44  -7.45  -6.63   -14.111294    0      1      

Converged after 55 iterations.

Dipole moment: (-0.883487, 1.242117, 0.000000) |e|*Ang

Energy contributions relative to reference atoms: (reference = -412395.464894)

Kinetic:        +30.581185
Potential:      -24.816455
External:        +0.000000
XC:             -19.755546
Entropy (-ST):   +0.000000
Local:           -0.120479
--------------------------
Free energy:    -14.111294
Extrapolated:   -14.111294

Fermi level: -4.82525

 Band  Eigenvalues  Occupancy
    0    -64.86835    2.00000
    1    -34.43097    2.00000
    2    -34.09777    2.00000
    3    -34.04140    2.00000
    4    -15.82772    2.00000
    5    -12.16381    2.00000
    6     -6.75275    2.00000
    7     -5.64332    2.00000
    8     -5.41449    2.00000
    9     -5.13289    2.00000
   10     -4.82525    1.00000
   11     -3.32989    0.00000
   12     -2.94170    0.00000
   13     -1.17365    0.00000
   14     -0.40491    0.00000
   15      0.70905    0.00000
   16      1.00768    0.00000
   17      1.67560    0.00000
   18      2.52395    0.00000
   19      2.64184    0.00000
   20      3.19938    0.00000

Writing to 3_57799_Pm_PBE_yz0_0999.gpw (mode='all')

Timing:                              incl.     excl.
-----------------------------------------------------------
Hamiltonian:                         9.491     0.000   0.0% |
 Atomic:                             0.204     0.001   0.0% |
  XC Correction:                     0.203     0.203   0.1% |
 Calculate atomic Hamiltonians:      0.009     0.009   0.0% |
 Communicate:                        0.000     0.000   0.0% |
 Hartree integrate/restrict:         0.047     0.047   0.0% |
 Initialize Hamiltonian:             0.000     0.000   0.0% |
 Poisson:                            6.956     6.956   1.9% ||
 XC 3D grid:                         2.262     2.262   0.6% |
 vbar:                               0.013     0.013   0.0% |
LCAO initialization:                 0.840     0.576   0.2% |
 LCAO eigensolver:                   0.080     0.000   0.0% |
  Calculate projections:             0.000     0.000   0.0% |
  DenseAtomicCorrection:             0.000     0.000   0.0% |
  Distribute overlap matrix:         0.000     0.000   0.0% |
  Orbital Layouts:                   0.000     0.000   0.0% |
  Potential matrix:                  0.079     0.079   0.0% |
 LCAO to grid:                       0.180     0.180   0.0% |
 Set positions (LCAO WFS):           0.004     0.000   0.0% |
  Basic WFS set positions:           0.000     0.000   0.0% |
  Basis functions set positions:     0.000     0.000   0.0% |
  TCI: Calculate S, T, P:            0.003     0.003   0.0% |
SCF-cycle:                         356.569     0.023   0.0% |
 Davidson:                         148.365    23.777   6.5% |--|
  Apply hamiltonian:                 9.933     9.933   2.7% ||
  Subspace diag:                    43.492     0.006   0.0% |
   calc_h_matrix:                   21.769    11.880   3.2% ||
    Apply hamiltonian:               9.890     9.890   2.7% ||
   diagonalize:                      0.013     0.013   0.0% |
   rotate_psi:                      21.704    21.704   5.9% |-|
  calc. matrices:                   49.123    39.210  10.7% |---|
   Apply hamiltonian:                9.913     9.913   2.7% ||
  diagonalize:                       0.045     0.045   0.0% |
  rotate_psi:                       21.995    21.995   6.0% |-|
 Density:                            5.010     0.001   0.0% |
  Atomic density matrices:           0.038     0.038   0.0% |
  Mix:                               3.471     3.471   0.9% |
  Multipole moments:                 0.010     0.010   0.0% |
  Pseudo density:                    1.490     1.489   0.4% |
   Symmetrize density:               0.001     0.001   0.0% |
 Hamiltonian:                      202.865     0.006   0.0% |
  Atomic:                           10.772     0.049   0.0% |
   XC Correction:                   10.723    10.723   2.9% ||
  Calculate atomic Hamiltonians:     0.472     0.472   0.1% |
  Communicate:                       0.000     0.000   0.0% |
  Hartree integrate/restrict:        2.142     2.142   0.6% |
  Poisson:                          68.969    68.969  18.7% |------|
  XC 3D grid:                      120.030   120.030  32.6% |------------|
  vbar:                              0.474     0.474   0.1% |
 Orthonormalize:                     0.307     0.000   0.0% |
  calc_s_matrix:                     0.111     0.111   0.0% |
  inverse-cholesky:                  0.000     0.000   0.0% |
  projections:                       0.030     0.030   0.0% |
  rotate_psi_s:                      0.165     0.165   0.0% |
Set symmetry:                        0.001     0.001   0.0% |
Other:                               1.215     1.215   0.3% |
-----------------------------------------------------------
Total:                                       368.116 100.0%

Memory usage: 604.54 MiB
Date: Mon Aug 20 18:46:44 2018
