
  ___ ___ ___ _ _ _  
 |   |   |_  | | | | 
 | | | | | . | | | | 
 |__ |  _|___|_____|  1.4.0
 |___|_|             

User:   ???@3fe09ff0504a
Date:   Mon Aug 20 17:43:43 2018
Arch:   x86_64
Pid:    1547
Python: 3.7.0
gpaw:   /app/gpaw/software/venv/lib/python3.7/site-packages/gpaw
_gpaw:  /app/gpaw/software/venv/lib/python3.7/site-packages/
        _gpaw.cpython-37m-x86_64-linux-gnu.so
ase:    /app/gpaw/software/venv/lib/python3.7/site-packages/ase (version 3.16.2)
numpy:  /app/gpaw/software/venv/lib/python3.7/site-packages/numpy (version 1.15.0)
scipy:  /app/gpaw/software/venv/lib/python3.7/site-packages/scipy (version 1.1.0)
units:  Angstrom and eV
cores:  1

Input parameters:
  gpts: [72 64 72]
  maxiter: 150
  mixer: {backend: pulay,
          beta: None,
          method: separate,
          nmaxold: None,
          weight: None}
  xc: PBE

System changes: positions, numbers, cell, pbc, initial_charges, initial_magmoms 

Initialize ...

Hf-setup:
  name: Hafnium
  id: d03a45b6fa1dd7f07e443d1513edf499
  Z: 72
  valence: 12
  core: 60
  charge: 0.0
  file: /app/gpaw/datasets/Hf.PBE
  cutoffs: 1.30(comp), 2.36(filt), 4.02(core), lmax=2
  valence states:
                energy  radius
    5s(2.00)   -66.831   1.397
    6s(2.00)    -5.097   1.397
    5p(6.00)   -35.599   1.307
    6p(0.00)    -1.401   1.307
    5d(2.00)    -2.699   1.334
    *d          24.513   1.334

  Using partial waves for Hf as LCAO basis

N-setup:
  name: Nitrogen
  id: 45c8c9c739e7b131496b9fd2deb94bff
  Z: 7
  valence: 5
  core: 2
  charge: 0.0
  file: /app/gpaw/datasets/N.PBE
  cutoffs: 0.58(comp), 1.11(filt), 0.96(core), lmax=2
  valence states:
                energy  radius
    2s(2.00)   -18.583   0.603
    2p(3.00)    -7.089   0.529
    *s           8.629   0.603
    *p          20.123   0.529
    *d           0.000   0.577

  Using partial waves for N as LCAO basis

C-setup:
  name: Carbon
  id: 2f012631b351e3618121587a96c50fca
  Z: 6
  valence: 4
  core: 2
  charge: 0.0
  file: /app/gpaw/datasets/C.PBE
  cutoffs: 0.64(comp), 1.14(filt), 1.14(core), lmax=2
  valence states:
                energy  radius
    2s(2.00)   -13.751   0.635
    2p(2.00)    -5.285   0.635
    *s          13.461   0.635
    *p          21.927   0.635
    *d           0.000   0.635

  Using partial waves for C as LCAO basis

Reference energy: -412395.464894

Spin-paired calculation

Occupation numbers:
  Fermi-Dirac: width=0.0000 eV

Convergence criteria:
  Maximum total energy change: 0.0005 eV / electron
  Maximum integral of absolute density change: 0.0001 electrons
  Maximum integral of absolute eigenstate change: 4e-08 eV^2
  Maximum number of iterations: 150

Symmetries present (total): 1

  ( 1  0  0)
  ( 0  1  0)
  ( 0  0  1)

1 k-point (Gamma)
1 k-point in the irreducible part of the Brillouin zone
       k-points in crystal coordinates                weights
   0:     0.00000000    0.00000000    0.00000000          1/1

Wave functions: Uniform real-space grid
  Kinetic energy operator: 6*3+1=19 point O(h^6) finite-difference Laplacian
  ScaLapack parameters: grid=1x1, blocksize=None 

Eigensolver
   Davidson(niter=1, smin=None, normalize=True) 

Densities:
  Coarse grid: 72*64*72 grid
  Fine grid: 144*128*144 grid
  Total Charge: 0.000000 

Density mixing:
  Method: separate
  Backend: pulay
  Linear mixing parameter: 0.25
  Mixing with 3 old densities
  No damping of long wave oscillations 

Hamiltonian:
  XC and Coulomb potentials evaluated on a 144*128*144 grid
  Using the PBE Exchange-Correlation functional
  Interpolation: tri-quintic (5. degree polynomial)
  Poisson solver: Jacobi solver with 5 multi-grid levels
    Coarsest grid: 9 x 8 x 9 points
    Stencil: 6*3+1=19 point O(h^6) finite-difference Laplacian
    Max iterations: 1000
    Tolerance: 2.000000e-10 

Memory estimate:
  Process memory now: 41.55 MiB
  Calculator: 325.36 MiB
    Density: 113.90 MiB
      Arrays: 64.29 MiB
      Localized functions: 35.07 MiB
      Mixer: 14.54 MiB
    Hamiltonian: 92.51 MiB
      Arrays: 42.05 MiB
      XC: 0.00 MiB
      Poisson: 48.10 MiB
      vbar: 2.35 MiB
    Wavefunctions: 118.96 MiB
      Arrays psit_nG: 50.88 MiB
      Eigensolver: 63.03 MiB
      Projections: 0.01 MiB
      Projectors: 5.04 MiB

Total number of cores used: 1

Number of atoms: 3
Number of atomic orbitals: 21
Number of bands in calculation: 21
Bands to converge: occupied states only
Number of valence electrons: 21

... initialized

Initializing position-dependent things.

Density initialized from atomic densities
Creating initial wave functions:
  21 bands from LCAO basis set

      .--------------------.  
     /|                    |  
    / |                    |  
   /  |                    |  
  /   |                    |  
 *    |                    |  
 |    |                    |  
 |    |     Hf   C         |  
 |    |    N               |  
 |    |                    |  
 |    .--------------------.  
 |   /                    /   
 |  /                    /    
 | /                    /     
 |/                    /      
 *--------------------*       

Positions:
   0 Hf     3.335050    4.946250    4.250000    ( 0.0000,  0.0000,  0.0000)
   1 N      3.335050    3.053750    4.250000    ( 0.0000,  0.0000,  0.0000)
   2 C      5.164950    4.866250    4.250000    ( 0.0000,  0.0000,  0.0000)

Unit cell:
           periodic     x           y           z      points  spacing
  1. axis:    no     8.500000    0.000000    0.000000    72     0.1181
  2. axis:    no     0.000000    8.000000    0.000000    64     0.1250
  3. axis:    no     0.000000    0.000000    8.500000    72     0.1181

  Lengths:   8.500000   8.000000   8.500000
  Angles:   90.000000  90.000000  90.000000

Effective grid spacing dv^(1/3) = 0.1203

                     log10-error:    total        iterations:
           time      wfs    density  energy       fermi  poisson
iter:   1  17:43:57  +2.44   +inf   -18.657370    0      15     
iter:   2  17:44:00  +1.10   +inf   -19.158256    0             
iter:   3  17:44:02  +0.52   +inf   -19.325232    0             
iter:   4  17:44:12  +0.58  -0.70   -16.571497    0      11     
iter:   5  17:44:21  +0.88  -0.76   -15.311949    0      9      
iter:   6  17:44:30  +0.49  -0.97   -14.572188    0      9      
iter:   7  17:44:39  +0.17  -1.18   -14.509159    0      9      
iter:   8  17:44:47  +0.41  -1.15   -14.507633    0      8      
iter:   9  17:44:57  -0.43  -1.34   -14.444421    0      9      
iter:  10  17:45:05  +0.08  -1.61   -14.457176    0      6      
iter:  11  17:45:14  -0.67  -1.64   -14.519430    0      8      
iter:  12  17:45:22  -0.45  -1.21   -14.449985    0      7      
iter:  13  17:45:30  -1.17  -1.80   -14.452173    0      5      
iter:  14  17:45:37  -1.15  -1.82   -14.448718    0      5      
iter:  15  17:45:45  -1.47  -1.92   -14.487707    0      6      
iter:  16  17:45:52  -1.39  -1.23   -14.447875    0      6      
iter:  17  17:45:59  -1.75  -1.99   -14.447051    0      4      
iter:  18  17:46:06  -2.32  -2.03   -14.446723    0      4      
iter:  19  17:46:13  -2.15  -2.05   -14.508852    0      6      
iter:  20  17:46:21  -1.83  -1.21   -14.445954    0      6      
iter:  21  17:46:28  -1.97  -2.09   -14.448464    0      4      
iter:  22  17:46:34  -2.80  -1.26   -14.448553    0      3      
iter:  23  17:46:41  -2.57  -1.26   -14.446337    0      4      
iter:  24  17:46:48  -2.98  -2.08   -14.446312    0      3      
iter:  25  17:46:54  -3.07  -2.09   -14.446041    0      4      
iter:  26  17:47:02  -2.95  -2.10   -14.490995    0      6      
iter:  27  17:47:10  -2.34  -1.23   -14.446208    0      6      
iter:  28  17:47:16  -2.49  -1.26   -14.445826    0      3      
iter:  29  17:47:23  -2.99  -2.10   -14.447476    0      4      
iter:  30  17:47:30  -2.68  -1.61   -14.445537    0      4      
iter:  31  17:47:37  -3.74  -1.84   -14.446717    0      4      
iter:  32  17:47:44  -2.43  -1.86   -14.527143    0      6      
iter:  33  17:47:52  -1.89  -1.25   -14.459018    0      6      
iter:  34  17:47:59  -1.87  -1.25   -14.498883    0      5      
iter:  35  17:48:07  -1.77  -1.23   -14.539595    0      7      
iter:  36  17:48:15  -1.20  -1.56   -14.472437    0      6      
iter:  37  17:48:23  -1.53  -1.74   -14.467836    0      5      
iter:  38  17:48:31  -1.66  -1.77   -14.504277    0      6      
iter:  39  17:48:38  -1.00  -1.23   -14.459689    0      6      
iter:  40  17:48:45  -2.05  -1.85   -14.456542    0      4      
iter:  41  17:48:53  -2.52  -1.88   -14.450216    0      5      
iter:  42  17:49:01  -2.14  -1.97   -14.567964    0      7      
iter:  43  17:49:09  -1.46  -1.19   -14.450797    0      7      
iter:  44  17:49:17  -1.69  -1.97   -14.446728    0      5      
iter:  45  17:49:24  -2.61  -2.06   -14.450541    0      5      
iter:  46  17:49:33  -1.91  -1.98   -14.542398    0      7      
iter:  47  17:49:42  -1.62  -1.21   -14.446062    0      6      
iter:  48  17:49:49  -2.48  -2.07   -14.446456    0      4      
iter:  49  17:49:56  -2.45  -2.06   -14.447204    0      5      
iter:  50  17:50:04  -3.50  -1.26   -14.446602    0      4      
iter:  51  17:50:11  -2.99  -2.07   -14.445843    0      4      
iter:  52  17:50:18  -4.08  -1.94   -14.445931    0      3      
iter:  53  17:50:26  -3.39  -2.08   -14.466282    0      5      
iter:  54  17:50:33  -2.77  -1.25   -14.446107    0      5      
iter:  55  17:50:40  -3.02  -2.09   -14.446814    0      4      
iter:  56  17:50:46  -3.36  -1.81   -14.448930    0      4      
iter:  57  17:50:52  -3.21  -1.26   -14.445699    0      3      
iter:  58  17:50:59  -3.73  -2.06   -14.446606    0      4      
iter:  59  17:51:06  -3.46  -2.02   -14.445726    0      4      
iter:  60  17:51:12  -3.63  -1.92   -14.449093    0      4      
iter:  61  17:51:19  -2.98  -1.31   -14.454742    0      5      
iter:  62  17:51:25  -2.46  -1.25   -14.466143    0      4      
iter:  63  17:51:33  -1.96  -1.24   -14.502311    0      7      
iter:  64  17:51:41  -1.50  -1.66   -14.488584    0      6      
iter:  65  17:51:48  -1.40  -1.66   -14.464683    0      5      
iter:  66  17:51:55  -1.85  -1.81   -14.475684    0      6      
iter:  67  17:52:02  -1.19  -1.25   -14.460956    0      6      
iter:  68  17:52:09  -2.30  -1.84   -14.456767    0      5      
iter:  69  17:52:16  -2.85  -1.88   -14.453744    0      4      
iter:  70  17:52:23  -2.19  -1.92   -14.560624    0      7      
iter:  71  17:52:31  -1.69  -1.20   -14.449068    0      6      
iter:  72  17:52:37  -1.78  -2.01   -14.448064    0      4      
iter:  73  17:52:44  -2.47  -2.03   -14.445588    0      5      
iter:  74  17:52:52  -2.70  -1.84   -14.527602    0      6      
iter:  75  17:52:59  -2.12  -1.21   -14.447040    0      6      
iter:  76  17:53:06  -2.12  -2.06   -14.447113    0      4      
iter:  77  17:53:12  -3.09  -1.30   -14.450788    0      4      
iter:  78  17:53:19  -2.69  -1.27   -14.454693    0      5      
iter:  79  17:53:27  -1.29  -1.25   -14.816413    0      8      
iter:  80  17:53:35  -0.77  -1.26   -14.480797    0      7      
iter:  81  17:53:43  -0.67  -1.67   -14.468805    0      6      
iter:  82  17:53:50  -1.11  -1.75   -14.520298    0      7      
iter:  83  17:53:58  -0.53  -1.21   -14.461306    0      6      
iter:  84  17:54:05  -2.26  -1.83   -14.456762    0      5      
iter:  85  17:54:12  -1.88  -1.87   -14.452057    0      5      
iter:  86  17:54:20  -2.05  -1.93   -14.561191    0      7      
iter:  87  17:54:28  -1.31  -1.20   -14.456387    0      7      
iter:  88  17:54:34  -1.48  -1.88   -14.448331    0      5      
iter:  89  17:54:42  -2.66  -2.00   -14.461697    0      5      
iter:  90  17:54:48  -2.96  -1.26   -14.445835    0      5      
iter:  91  17:54:55  -2.87  -2.08   -14.447471    0      4      
iter:  92  17:55:02  -3.11  -2.04   -14.446338    0      4      
iter:  93  17:55:11  -2.76  -2.07   -14.539155    0      6      
iter:  94  17:55:19  -2.15  -1.19   -14.446491    0      6      
iter:  95  17:55:27  -2.13  -1.50   -14.447057    0      4      
iter:  96  17:55:34  -2.53  -2.04   -14.451961    0      4      
iter:  97  17:55:41  -3.21  -1.26   -14.456149    0      4      
iter:  98  17:55:48  -2.78  -1.25   -14.449174    0      4      
iter:  99  17:55:57  -1.75  -1.40   -14.593727    0      7      
iter: 100  17:56:05  -1.20  -1.42   -14.468953    0      7      
iter: 101  17:56:13  -1.02  -1.63   -14.462725    0      6      
iter: 102  17:56:22  -1.72  -1.79   -14.476951    0      6      
iter: 103  17:56:30  -1.14  -1.25   -14.454830    0      6      
iter: 104  17:56:37  -2.37  -1.90   -14.456426    0      5      
iter: 105  17:56:45  -2.65  -1.88   -14.452745    0      4      
iter: 106  17:56:53  -2.21  -1.93   -14.552354    0      7      
iter: 107  17:57:01  -1.67  -1.20   -14.448521    0      6      
iter: 108  17:57:08  -1.90  -2.02   -14.448061    0      4      
iter: 109  17:57:16  -2.52  -2.03   -14.445765    0      5      
iter: 110  17:57:25  -2.68  -1.92   -14.534498    0      6      
iter: 111  17:57:32  -2.05  -1.20   -14.447676    0      6      
iter: 112  17:57:40  -2.08  -2.03   -14.446389    0      4      
iter: 113  17:57:47  -2.99  -1.51   -14.446810    0      4      
iter: 114  17:57:55  -2.63  -1.58   -14.448092    0      5      
iter: 115  17:58:02  -2.65  -2.04   -14.448535    0      4      
iter: 116  17:58:11  -2.93  -2.02   -14.449760    0      5      
iter: 117  17:58:19  -2.45  -1.91   -14.457400    0      5      
iter: 118  17:58:26  -2.37  -1.26   -14.447046    0      5      
iter: 119  17:58:34  -2.74  -1.44   -14.452153    0      5      
iter: 120  17:58:42  -2.54  -1.93   -14.447991    0      5      
iter: 121  17:58:49  -2.88  -1.91   -14.448636    0      4      
iter: 122  17:58:58  -2.89  -1.99   -14.497204    0      6      
iter: 123  17:59:05  -2.52  -1.24   -14.446340    0      5      
iter: 124  17:59:12  -2.57  -1.98   -14.447058    0      4      
iter: 125  17:59:19  -2.78  -2.05   -14.445943    0      4      
iter: 126  17:59:27  -3.40  -2.09   -14.448048    0      5      
iter: 127  17:59:35  -2.88  -1.94   -14.456547    0      5      
iter: 128  17:59:42  -2.93  -1.27   -14.446742    0      5      
iter: 129  17:59:50  -3.31  -1.28   -14.454080    0      5      
iter: 130  17:59:59  -1.46  -1.43   -14.699123    0      7      
iter: 131  18:00:08  -0.88  -1.35   -14.467861    0      7      
iter: 132  18:00:16  -0.69  -1.71   -14.457259    0      6      
iter: 133  18:00:24  -1.29  -1.81   -14.474054    0      6      
iter: 134  18:00:33  -0.85  -1.25   -14.462483    0      6      
iter: 135  18:00:41  -2.58  -1.81   -14.454725    0      5      
iter: 136  18:00:48  -2.05  -1.90   -14.454063    0      4      
iter: 137  18:00:56  -2.40  -1.91   -14.509095    0      6      
iter: 138  18:01:05  -1.74  -1.23   -14.450645    0      6      
iter: 139  18:01:12  -2.12  -1.97   -14.450381    0      3      
iter: 140  18:01:19  -2.74  -1.97   -14.447839    0      5      
iter: 141  18:01:28  -2.41  -2.03   -14.571313    0      7      
iter: 142  18:01:37  -1.91  -1.18   -14.447102    0      7      
iter: 143  18:01:44  -1.88  -2.05   -14.445605    0      4      
iter: 144  18:01:51  -2.71  -1.79   -14.448382    0      4      
iter: 145  18:01:59  -2.69  -1.28   -14.446346    0      5      
iter: 146  18:02:07  -2.44  -1.92   -14.455423    0      5      
iter: 147  18:02:14  -1.92  -1.89   -14.454638    0      5      
iter: 148  18:02:22  -1.98  -1.31   -14.448281    0      5      
iter: 149  18:02:29  -3.21  -2.02   -14.449676    0      5      
iter: 150  18:02:37  -2.82  -1.61   -14.448719    0      5      

Did not converge!

Here are some tips:

1) Make sure the geometry and spin-state is physically sound.
2) Use less aggressive density mixing.
3) Solve the eigenvalue problem more accurately at each scf-step.
4) Use a smoother distribution function for the occupation numbers.
5) Try adding more empty states.
6) Use enough k-points.
7) Don't let your structure optimization algorithm take too large steps.
8) Solve the Poisson equation more accurately.
9) Better initial guess for the wave functions.

See details here:

    https://wiki.fysik.dtu.dk/gpaw/documentation/convergence.html


Timing:                              incl.     excl.
-----------------------------------------------------------
Hamiltonian:                         9.184     0.000   0.0% |
 Atomic:                             0.203     0.001   0.0% |
  XC Correction:                     0.202     0.202   0.0% |
 Calculate atomic Hamiltonians:      0.009     0.009   0.0% |
 Communicate:                        0.000     0.000   0.0% |
 Hartree integrate/restrict:         0.039     0.039   0.0% |
 Initialize Hamiltonian:             0.000     0.000   0.0% |
 Poisson:                            6.730     6.730   0.6% |
 XC 3D grid:                         2.192     2.192   0.2% |
 vbar:                               0.011     0.011   0.0% |
LCAO initialization:                 0.850     0.590   0.1% |
 LCAO eigensolver:                   0.078     0.000   0.0% |
  Calculate projections:             0.000     0.000   0.0% |
  DenseAtomicCorrection:             0.000     0.000   0.0% |
  Distribute overlap matrix:         0.000     0.000   0.0% |
  Orbital Layouts:                   0.000     0.000   0.0% |
  Potential matrix:                  0.077     0.077   0.0% |
 LCAO to grid:                       0.177     0.177   0.0% |
 Set positions (LCAO WFS):           0.005     0.000   0.0% |
  Basic WFS set positions:           0.000     0.000   0.0% |
  Basis functions set positions:     0.000     0.000   0.0% |
  TCI: Calculate S, T, P:            0.004     0.004   0.0% |
SCF-cycle:                        1127.062     0.056   0.0% |
 Davidson:                         379.470    64.191   5.6% |-|
  Apply hamiltonian:                26.525    26.525   2.3% ||
  Subspace diag:                   114.367     0.015   0.0% |
   calc_h_matrix:                   57.202    30.642   2.7% ||
    Apply hamiltonian:              26.560    26.560   2.3% ||
   diagonalize:                      0.035     0.035   0.0% |
   rotate_psi:                      57.115    57.115   5.0% |-|
  calc. matrices:                  121.619    95.148   8.4% |--|
   Apply hamiltonian:               26.471    26.471   2.3% ||
  diagonalize:                       0.124     0.124   0.0% |
  rotate_psi:                       52.644    52.644   4.6% |-|
 Density:                           13.299     0.003   0.0% |
  Atomic density matrices:           0.104     0.104   0.0% |
  Mix:                               9.324     9.324   0.8% |
  Multipole moments:                 0.027     0.027   0.0% |
  Pseudo density:                    3.840     3.837   0.3% |
   Symmetrize density:               0.003     0.003   0.0% |
 Hamiltonian:                      734.009     0.018   0.0% |
  Atomic:                           30.336     0.137   0.0% |
   XC Correction:                   30.199    30.199   2.7% ||
  Calculate atomic Hamiltonians:     1.342     1.342   0.1% |
  Communicate:                       0.001     0.001   0.0% |
  Hartree integrate/restrict:        6.053     6.053   0.5% |
  Poisson:                         359.977   359.977  31.6% |------------|
  XC 3D grid:                      335.100   335.100  29.4% |-----------|
  vbar:                              1.181     1.181   0.1% |
 Orthonormalize:                     0.229     0.000   0.0% |
  calc_s_matrix:                     0.090     0.090   0.0% |
  inverse-cholesky:                  0.000     0.000   0.0% |
  projections:                       0.030     0.030   0.0% |
  rotate_psi_s:                      0.109     0.109   0.0% |
Set symmetry:                        0.001     0.001   0.0% |
Other:                               1.209     1.209   0.1% |
-----------------------------------------------------------
Total:                                      1138.307 100.0%

Memory usage: 598.05 MiB
Date: Mon Aug 20 18:02:41 2018
