
  ___ ___ ___ _ _ _  
 |   |   |_  | | | | 
 | | | | | . | | | | 
 |__ |  _|___|_____|  1.4.0
 |___|_|             

User:   ???@3fe09ff0504a
Date:   Mon Aug 20 19:14:59 2018
Arch:   x86_64
Pid:    1620
Python: 3.7.0
gpaw:   /app/gpaw/software/venv/lib/python3.7/site-packages/gpaw
_gpaw:  /app/gpaw/software/venv/lib/python3.7/site-packages/
        _gpaw.cpython-37m-x86_64-linux-gnu.so
ase:    /app/gpaw/software/venv/lib/python3.7/site-packages/ase (version 3.16.2)
numpy:  /app/gpaw/software/venv/lib/python3.7/site-packages/numpy (version 1.15.0)
scipy:  /app/gpaw/software/venv/lib/python3.7/site-packages/scipy (version 1.1.0)
units:  Angstrom and eV
cores:  1

Input parameters:
  gpts: [72 64 72]
  maxiter: 150
  mixer: {backend: pulay,
          beta: None,
          method: separate,
          nmaxold: None,
          weight: None}
  xc: PBE

System changes: positions, numbers, cell, pbc, initial_charges, initial_magmoms 

Initialize ...

Hf-setup:
  name: Hafnium
  id: d03a45b6fa1dd7f07e443d1513edf499
  Z: 72
  valence: 12
  core: 60
  charge: 0.0
  file: /app/gpaw/datasets/Hf.PBE
  cutoffs: 1.30(comp), 2.36(filt), 4.02(core), lmax=2
  valence states:
                energy  radius
    5s(2.00)   -66.831   1.397
    6s(2.00)    -5.097   1.397
    5p(6.00)   -35.599   1.307
    6p(0.00)    -1.401   1.307
    5d(2.00)    -2.699   1.334
    *d          24.513   1.334

  Using partial waves for Hf as LCAO basis

N-setup:
  name: Nitrogen
  id: 45c8c9c739e7b131496b9fd2deb94bff
  Z: 7
  valence: 5
  core: 2
  charge: 0.0
  file: /app/gpaw/datasets/N.PBE
  cutoffs: 0.58(comp), 1.11(filt), 0.96(core), lmax=2
  valence states:
                energy  radius
    2s(2.00)   -18.583   0.603
    2p(3.00)    -7.089   0.529
    *s           8.629   0.603
    *p          20.123   0.529
    *d           0.000   0.577

  Using partial waves for N as LCAO basis

C-setup:
  name: Carbon
  id: 2f012631b351e3618121587a96c50fca
  Z: 6
  valence: 4
  core: 2
  charge: 0.0
  file: /app/gpaw/datasets/C.PBE
  cutoffs: 0.64(comp), 1.14(filt), 1.14(core), lmax=2
  valence states:
                energy  radius
    2s(2.00)   -13.751   0.635
    2p(2.00)    -5.285   0.635
    *s          13.461   0.635
    *p          21.927   0.635
    *d           0.000   0.635

  Using partial waves for C as LCAO basis

Reference energy: -412395.464894

Spin-paired calculation

Occupation numbers:
  Fermi-Dirac: width=0.0000 eV

Convergence criteria:
  Maximum total energy change: 0.0005 eV / electron
  Maximum integral of absolute density change: 0.0001 electrons
  Maximum integral of absolute eigenstate change: 4e-08 eV^2
  Maximum number of iterations: 150

Symmetries present (total): 1

  ( 1  0  0)
  ( 0  1  0)
  ( 0  0  1)

1 k-point (Gamma)
1 k-point in the irreducible part of the Brillouin zone
       k-points in crystal coordinates                weights
   0:     0.00000000    0.00000000    0.00000000          1/1

Wave functions: Uniform real-space grid
  Kinetic energy operator: 6*3+1=19 point O(h^6) finite-difference Laplacian
  ScaLapack parameters: grid=1x1, blocksize=None 

Eigensolver
   Davidson(niter=1, smin=None, normalize=True) 

Densities:
  Coarse grid: 72*64*72 grid
  Fine grid: 144*128*144 grid
  Total Charge: 0.000000 

Density mixing:
  Method: separate
  Backend: pulay
  Linear mixing parameter: 0.25
  Mixing with 3 old densities
  No damping of long wave oscillations 

Hamiltonian:
  XC and Coulomb potentials evaluated on a 144*128*144 grid
  Using the PBE Exchange-Correlation functional
  Interpolation: tri-quintic (5. degree polynomial)
  Poisson solver: Jacobi solver with 5 multi-grid levels
    Coarsest grid: 9 x 8 x 9 points
    Stencil: 6*3+1=19 point O(h^6) finite-difference Laplacian
    Max iterations: 1000
    Tolerance: 2.000000e-10 

Memory estimate:
  Process memory now: 622.58 MiB
  Calculator: 325.36 MiB
    Density: 113.90 MiB
      Arrays: 64.29 MiB
      Localized functions: 35.07 MiB
      Mixer: 14.54 MiB
    Hamiltonian: 92.51 MiB
      Arrays: 42.05 MiB
      XC: 0.00 MiB
      Poisson: 48.10 MiB
      vbar: 2.35 MiB
    Wavefunctions: 118.96 MiB
      Arrays psit_nG: 50.88 MiB
      Eigensolver: 63.03 MiB
      Projections: 0.01 MiB
      Projectors: 5.04 MiB

Total number of cores used: 1

Number of atoms: 3
Number of atomic orbitals: 21
Number of bands in calculation: 21
Bands to converge: occupied states only
Number of valence electrons: 21

... initialized

Initializing position-dependent things.

Density initialized from atomic densities
Creating initial wave functions:
  21 bands from LCAO basis set

      .--------------------.  
     /|                    |  
    / |                    |  
   /  |                    |  
  /   |                    |  
 *    |                    |  
 |    |                    |  
 |    |     Hf   C         |  
 |    |    N               |  
 |    |                    |  
 |    .--------------------.  
 |   /                    /   
 |  /                    /    
 | /                    /     
 |/                    /      
 *--------------------*       

Positions:
   0 Hf     3.385050    4.936250    4.250000    ( 0.0000,  0.0000,  0.0000)
   1 N      3.385050    3.063750    4.250000    ( 0.0000,  0.0000,  0.0000)
   2 C      5.114950    4.776250    4.250000    ( 0.0000,  0.0000,  0.0000)

Unit cell:
           periodic     x           y           z      points  spacing
  1. axis:    no     8.500000    0.000000    0.000000    72     0.1181
  2. axis:    no     0.000000    8.000000    0.000000    64     0.1250
  3. axis:    no     0.000000    0.000000    8.500000    72     0.1181

  Lengths:   8.500000   8.000000   8.500000
  Angles:   90.000000  90.000000  90.000000

Effective grid spacing dv^(1/3) = 0.1203

                     log10-error:    total        iterations:
           time      wfs    density  energy       fermi  poisson
iter:   1  19:15:12  +2.42   +inf   -18.211229    0      15     
iter:   2  19:15:14  +1.18   +inf   -18.808896    0             
iter:   3  19:15:16  +0.60   +inf   -19.001339    0             
iter:   4  19:15:26  +0.61  -0.72   -15.526136    0      11     
iter:   5  19:15:34  +0.82  -0.84   -15.024160    0      9      
iter:   6  19:15:43  +0.50  -0.97   -14.222831    0      9      
iter:   7  19:15:51  +0.25  -1.21   -14.109053    0      9      
iter:   8  19:15:59  +0.43  -1.47   -14.109197    0      8      
iter:   9  19:16:07  -0.07  -1.88   -14.128720    0      7      
iter:  10  19:16:14  +0.01  -2.08   -14.136218    0      5      
iter:  11  19:16:20  -0.55  -2.24   -14.140086    0      5      
iter:  12  19:16:27  -0.55  -2.34   -14.141753    0      5      
iter:  13  19:16:33  -1.16  -2.76   -14.143131    0      4      
iter:  14  19:16:40  -0.87  -2.69   -14.144428    0      5      
iter:  15  19:16:47  -1.65  -3.00   -14.145140    0      4      
iter:  16  19:16:52  -1.33  -3.34   -14.145507    0      3      
iter:  17  19:16:58  -2.01  -3.52   -14.145764    0      3      
iter:  18  19:17:04  -1.69  -3.43   -14.146063    0      2      
iter:  19  19:17:09  -2.35  -3.47   -14.145948    0      2      
iter:  20  19:17:15  -2.03  -3.30   -14.146123    0      3      
iter:  21  19:17:20  -2.67  -3.37   -14.146124    0      1      
iter:  22  19:17:26  -2.35  -3.29   -14.146204    0      2      
iter:  23  19:17:32  -2.98  -3.29   -14.146248    0      3      
iter:  24  19:17:37  -2.75  -3.33   -14.146315    0      3      
iter:  25  19:17:43  -3.35  -3.40   -14.146595    0      3      
iter:  26  19:17:49  -3.19  -3.71   -14.146084    0      2      
iter:  27  19:17:54  -3.66  -3.78   -14.146208    0      2      
iter:  28  19:18:00  -3.64  -3.88   -14.146210    0      3      
iter:  29  19:18:06  -3.94  -4.39   -14.146191    0      2      
iter:  30  19:18:11  -3.96  -4.58   -14.146158    0      1      
iter:  31  19:18:16  -4.24  -4.61   -14.146168    0      1      
iter:  32  19:18:21  -4.26  -4.75   -14.146196    0      1      
iter:  33  19:18:26  -4.54  -5.25   -14.146187    0      1      
iter:  34  19:18:31  -4.56  -5.20   -14.146176    0      1      
iter:  35  19:18:36  -4.83  -5.24   -14.146181    0      1      
iter:  36  19:18:41  -4.85  -5.20   -14.146180    0      1      
iter:  37  19:18:46  -5.13  -5.31   -14.146208    0      1      
iter:  38  19:18:51  -5.14  -5.55   -14.146163    0      1      
iter:  39  19:18:56  -5.41  -5.50   -14.146157    0      1      
iter:  40  19:19:01  -5.43  -5.39   -14.146130    0      1      
iter:  41  19:19:06  -5.69  -5.15   -14.146159    0      1      
iter:  42  19:19:11  -5.71  -5.24   -14.146171    0      1      
iter:  43  19:19:16  -5.99  -5.47   -14.146198    0      1      
iter:  44  19:19:21  -5.97  -5.69   -14.146141    0      1      
iter:  45  19:19:26  -6.29  -5.84   -14.146153    0      1      
iter:  46  19:19:31  -6.27  -6.01   -14.146147    0      1      
iter:  47  19:19:36  -6.57  -6.00   -14.146166    0      1      
iter:  48  19:19:41  -6.57  -5.77   -14.146135    0      1      
iter:  49  19:19:46  -6.86  -6.15   -14.146147    0      1      
iter:  50  19:19:52  -6.88  -6.43   -14.146144    0      1      
iter:  51  19:19:57  -7.13  -6.42   -14.146143    0      1      
iter:  52  19:20:02  -7.18  -6.21   -14.146144    0      1      
iter:  53  19:20:07  -7.40  -6.17   -14.146145    0      1      

Converged after 53 iterations.

Dipole moment: (-0.880976, 1.311709, -0.000000) |e|*Ang

Energy contributions relative to reference atoms: (reference = -412395.464894)

Kinetic:        +25.035748
Potential:      -20.296242
External:        +0.000000
XC:             -18.735714
Entropy (-ST):   +0.000000
Local:           -0.149936
--------------------------
Free energy:    -14.146145
Extrapolated:   -14.146145

Fermi level: -4.88390

 Band  Eigenvalues  Occupancy
    0    -65.04258    2.00000
    1    -34.56395    2.00000
    2    -34.26192    2.00000
    3    -34.07854    2.00000
    4    -15.82516    2.00000
    5    -12.17435    2.00000
    6     -6.61198    2.00000
    7     -5.57004    2.00000
    8     -5.36240    2.00000
    9     -5.00990    2.00000
   10     -4.88390    1.00000
   11     -3.27760    0.00000
   12     -2.99900    0.00000
   13     -1.25134    0.00000
   14     -0.50355    0.00000
   15      0.44131    0.00000
   16      0.84412    0.00000
   17      1.49271    0.00000
   18      2.43692    0.00000
   19      2.53250    0.00000
   20      3.19075    0.00000

Writing to 3_57799_Pm_PBE_yz0_16.gpw (mode='all')

Timing:                              incl.     excl.
-----------------------------------------------------------
Hamiltonian:                         8.865     0.000   0.0% |
 Atomic:                             0.195     0.001   0.0% |
  XC Correction:                     0.194     0.194   0.1% |
 Calculate atomic Hamiltonians:      0.009     0.009   0.0% |
 Communicate:                        0.000     0.000   0.0% |
 Hartree integrate/restrict:         0.034     0.034   0.0% |
 Initialize Hamiltonian:             0.000     0.000   0.0% |
 Poisson:                            6.430     6.430   2.1% ||
 XC 3D grid:                         2.187     2.187   0.7% |
 vbar:                               0.011     0.011   0.0% |
LCAO initialization:                 0.811     0.561   0.2% |
 LCAO eigensolver:                   0.076     0.000   0.0% |
  Calculate projections:             0.000     0.000   0.0% |
  DenseAtomicCorrection:             0.000     0.000   0.0% |
  Distribute overlap matrix:         0.000     0.000   0.0% |
  Orbital Layouts:                   0.000     0.000   0.0% |
  Potential matrix:                  0.075     0.075   0.0% |
 LCAO to grid:                       0.170     0.170   0.1% |
 Set positions (LCAO WFS):           0.004     0.000   0.0% |
  Basic WFS set positions:           0.000     0.000   0.0% |
  Basis functions set positions:     0.000     0.000   0.0% |
  TCI: Calculate S, T, P:            0.003     0.003   0.0% |
SCF-cycle:                         296.675     0.021   0.0% |
 Davidson:                         110.769    20.184   6.6% |--|
  Apply hamiltonian:                 8.550     8.550   2.8% ||
  Subspace diag:                    31.527     0.005   0.0% |
   calc_h_matrix:                   15.653     7.118   2.3% ||
    Apply hamiltonian:               8.535     8.535   2.8% ||
   diagonalize:                      0.012     0.012   0.0% |
   rotate_psi:                      15.857    15.857   5.2% |-|
  calc. matrices:                   34.637    26.104   8.5% |--|
   Apply hamiltonian:                8.533     8.533   2.8% ||
  diagonalize:                       0.041     0.041   0.0% |
  rotate_psi:                       15.829    15.829   5.1% |-|
 Density:                            4.028     0.001   0.0% |
  Atomic density matrices:           0.034     0.034   0.0% |
  Mix:                               2.887     2.887   0.9% |
  Multipole moments:                 0.009     0.009   0.0% |
  Pseudo density:                    1.097     1.097   0.4% |
   Symmetrize density:               0.001     0.001   0.0% |
 Hamiltonian:                      181.657     0.006   0.0% |
  Atomic:                            9.748     0.043   0.0% |
   XC Correction:                    9.705     9.705   3.2% ||
  Calculate atomic Hamiltonians:     0.434     0.434   0.1% |
  Communicate:                       0.000     0.000   0.0% |
  Hartree integrate/restrict:        1.707     1.707   0.6% |
  Poisson:                          59.835    59.835  19.5% |-------|
  XC 3D grid:                      109.617   109.617  35.7% |-------------|
  vbar:                              0.311     0.311   0.1% |
 Orthonormalize:                     0.199     0.000   0.0% |
  calc_s_matrix:                     0.073     0.073   0.0% |
  inverse-cholesky:                  0.000     0.000   0.0% |
  projections:                       0.028     0.028   0.0% |
  rotate_psi_s:                      0.097     0.097   0.0% |
Set symmetry:                        0.001     0.001   0.0% |
Other:                               1.116     1.116   0.4% |
-----------------------------------------------------------
Total:                                       307.468 100.0%

Memory usage: 628.63 MiB
Date: Mon Aug 20 19:20:07 2018
