
  ___ ___ ___ _ _ _  
 |   |   |_  | | | | 
 | | | | | . | | | | 
 |__ |  _|___|_____|  1.4.0
 |___|_|             

User:   ???@3fe09ff0504a
Date:   Mon Aug 20 19:30:50 2018
Arch:   x86_64
Pid:    1620
Python: 3.7.0
gpaw:   /app/gpaw/software/venv/lib/python3.7/site-packages/gpaw
_gpaw:  /app/gpaw/software/venv/lib/python3.7/site-packages/
        _gpaw.cpython-37m-x86_64-linux-gnu.so
ase:    /app/gpaw/software/venv/lib/python3.7/site-packages/ase (version 3.16.2)
numpy:  /app/gpaw/software/venv/lib/python3.7/site-packages/numpy (version 1.15.0)
scipy:  /app/gpaw/software/venv/lib/python3.7/site-packages/scipy (version 1.1.0)
units:  Angstrom and eV
cores:  1

Input parameters:
  gpts: [72 64 72]
  maxiter: 150
  mixer: {backend: pulay,
          beta: None,
          method: separate,
          nmaxold: None,
          weight: None}
  xc: PBE

System changes: positions, numbers, cell, pbc, initial_charges, initial_magmoms 

Initialize ...

Hf-setup:
  name: Hafnium
  id: d03a45b6fa1dd7f07e443d1513edf499
  Z: 72
  valence: 12
  core: 60
  charge: 0.0
  file: /app/gpaw/datasets/Hf.PBE
  cutoffs: 1.30(comp), 2.36(filt), 4.02(core), lmax=2
  valence states:
                energy  radius
    5s(2.00)   -66.831   1.397
    6s(2.00)    -5.097   1.397
    5p(6.00)   -35.599   1.307
    6p(0.00)    -1.401   1.307
    5d(2.00)    -2.699   1.334
    *d          24.513   1.334

  Using partial waves for Hf as LCAO basis

N-setup:
  name: Nitrogen
  id: 45c8c9c739e7b131496b9fd2deb94bff
  Z: 7
  valence: 5
  core: 2
  charge: 0.0
  file: /app/gpaw/datasets/N.PBE
  cutoffs: 0.58(comp), 1.11(filt), 0.96(core), lmax=2
  valence states:
                energy  radius
    2s(2.00)   -18.583   0.603
    2p(3.00)    -7.089   0.529
    *s           8.629   0.603
    *p          20.123   0.529
    *d           0.000   0.577

  Using partial waves for N as LCAO basis

C-setup:
  name: Carbon
  id: 2f012631b351e3618121587a96c50fca
  Z: 6
  valence: 4
  core: 2
  charge: 0.0
  file: /app/gpaw/datasets/C.PBE
  cutoffs: 0.64(comp), 1.14(filt), 1.14(core), lmax=2
  valence states:
                energy  radius
    2s(2.00)   -13.751   0.635
    2p(2.00)    -5.285   0.635
    *s          13.461   0.635
    *p          21.927   0.635
    *d           0.000   0.635

  Using partial waves for C as LCAO basis

Reference energy: -412395.464894

Spin-paired calculation

Occupation numbers:
  Fermi-Dirac: width=0.0000 eV

Convergence criteria:
  Maximum total energy change: 0.0005 eV / electron
  Maximum integral of absolute density change: 0.0001 electrons
  Maximum integral of absolute eigenstate change: 4e-08 eV^2
  Maximum number of iterations: 150

Symmetries present (total): 1

  ( 1  0  0)
  ( 0  1  0)
  ( 0  0  1)

1 k-point (Gamma)
1 k-point in the irreducible part of the Brillouin zone
       k-points in crystal coordinates                weights
   0:     0.00000000    0.00000000    0.00000000          1/1

Wave functions: Uniform real-space grid
  Kinetic energy operator: 6*3+1=19 point O(h^6) finite-difference Laplacian
  ScaLapack parameters: grid=1x1, blocksize=None 

Eigensolver
   Davidson(niter=1, smin=None, normalize=True) 

Densities:
  Coarse grid: 72*64*72 grid
  Fine grid: 144*128*144 grid
  Total Charge: 0.000000 

Density mixing:
  Method: separate
  Backend: pulay
  Linear mixing parameter: 0.25
  Mixing with 3 old densities
  No damping of long wave oscillations 

Hamiltonian:
  XC and Coulomb potentials evaluated on a 144*128*144 grid
  Using the PBE Exchange-Correlation functional
  Interpolation: tri-quintic (5. degree polynomial)
  Poisson solver: Jacobi solver with 5 multi-grid levels
    Coarsest grid: 9 x 8 x 9 points
    Stencil: 6*3+1=19 point O(h^6) finite-difference Laplacian
    Max iterations: 1000
    Tolerance: 2.000000e-10 

Memory estimate:
  Process memory now: 631.55 MiB
  Calculator: 325.36 MiB
    Density: 113.90 MiB
      Arrays: 64.29 MiB
      Localized functions: 35.07 MiB
      Mixer: 14.54 MiB
    Hamiltonian: 92.51 MiB
      Arrays: 42.05 MiB
      XC: 0.00 MiB
      Poisson: 48.10 MiB
      vbar: 2.35 MiB
    Wavefunctions: 118.96 MiB
      Arrays psit_nG: 50.88 MiB
      Eigensolver: 63.03 MiB
      Projections: 0.01 MiB
      Projectors: 5.04 MiB

Total number of cores used: 1

Number of atoms: 3
Number of atomic orbitals: 21
Number of bands in calculation: 21
Bands to converge: occupied states only
Number of valence electrons: 21

... initialized

Initializing position-dependent things.

Density initialized from atomic densities
Creating initial wave functions:
  21 bands from LCAO basis set

      .--------------------.  
     /|                    |  
    / |                    |  
   /  |                    |  
  /   |                    |  
 *    |                    |  
 |    |                    |  
 |    |     Hf   C         |  
 |    |    N               |  
 |    |                    |  
 |    .--------------------.  
 |   /                    /   
 |  /                    /    
 | /                    /     
 |/                    /      
 *--------------------*       

Positions:
   0 Hf     3.385050    4.951250    4.250000    ( 0.0000,  0.0000,  0.0000)
   1 N      3.385050    3.048750    4.250000    ( 0.0000,  0.0000,  0.0000)
   2 C      5.114950    4.761250    4.250000    ( 0.0000,  0.0000,  0.0000)

Unit cell:
           periodic     x           y           z      points  spacing
  1. axis:    no     8.500000    0.000000    0.000000    72     0.1181
  2. axis:    no     0.000000    8.000000    0.000000    64     0.1250
  3. axis:    no     0.000000    0.000000    8.500000    72     0.1181

  Lengths:   8.500000   8.000000   8.500000
  Angles:   90.000000  90.000000  90.000000

Effective grid spacing dv^(1/3) = 0.1203

                     log10-error:    total        iterations:
           time      wfs    density  energy       fermi  poisson
iter:   1  19:31:03  +2.43   +inf   -18.210329    0      15     
iter:   2  19:31:05  +1.17   +inf   -18.788919    0             
iter:   3  19:31:07  +0.59   +inf   -18.976255    0             
iter:   4  19:31:16  +0.62  -0.72   -15.554201    0      11     
iter:   5  19:31:25  +0.82  -0.81   -15.065265    0      9      
iter:   6  19:31:33  +0.48  -0.96   -14.236269    0      9      
iter:   7  19:31:42  +0.20  -1.20   -14.098661    0      9      
iter:   8  19:31:50  +0.41  -1.44   -14.091808    0      8      
iter:   9  19:31:57  -0.01  -1.85   -14.162762    0      7      
iter:  10  19:32:04  +0.00  -1.15   -14.142849    0      5      
iter:  11  19:32:11  -0.49  -1.16   -14.127064    0      6      
iter:  12  19:32:18  -0.44  -1.93   -14.127739    0      5      
iter:  13  19:32:25  -0.95  -2.07   -14.126955    0      6      
iter:  14  19:32:31  -1.11  -2.56   -14.127966    0      4      
iter:  15  19:32:38  -1.32  -2.61   -14.128715    0      4      
iter:  16  19:32:44  -1.51  -2.70   -14.129093    0      5      
iter:  17  19:32:50  -1.74  -3.27   -14.129326    0      3      
iter:  18  19:32:56  -1.85  -3.30   -14.129634    0      3      
iter:  19  19:33:02  -2.08  -3.52   -14.129832    0      3      
iter:  20  19:33:08  -2.18  -3.90   -14.129767    0      2      
iter:  21  19:33:13  -2.39  -3.80   -14.129898    0      2      
iter:  22  19:33:18  -2.47  -3.83   -14.130089    0      1      
iter:  23  19:33:24  -2.69  -3.73   -14.129858    0      2      
iter:  24  19:33:29  -2.75  -3.70   -14.129764    0      1      
iter:  25  19:33:34  -2.96  -3.61   -14.130076    0      2      
iter:  26  19:33:40  -3.05  -3.70   -14.130171    0      2      
iter:  27  19:33:45  -3.30  -3.84   -14.130121    0      3      
iter:  28  19:33:51  -3.41  -4.21   -14.130034    0      2      
iter:  29  19:33:56  -3.61  -4.38   -14.130164    0      1      
iter:  30  19:34:01  -3.71  -4.48   -14.130030    0      2      
iter:  31  19:34:06  -3.91  -4.65   -14.130136    0      1      
iter:  32  19:34:12  -4.00  -4.88   -14.130159    0      1      
iter:  33  19:34:17  -4.19  -5.04   -14.129993    0      1      
iter:  34  19:34:22  -4.28  -4.95   -14.129967    0      1      
iter:  35  19:34:27  -4.47  -4.88   -14.129837    0      1      
iter:  36  19:34:32  -4.54  -4.61   -14.130077    0      1      
iter:  37  19:34:37  -4.73  -4.79   -14.130022    0      1      
iter:  38  19:34:42  -4.82  -4.83   -14.130194    0      1      
iter:  39  19:34:47  -5.01  -5.46   -14.129956    0      1      
iter:  40  19:34:52  -5.11  -5.36   -14.129941    0      1      
iter:  41  19:34:57  -5.30  -5.33   -14.129936    0      1      
iter:  42  19:35:02  -5.37  -5.24   -14.129908    0      1      
iter:  43  19:35:07  -5.56  -5.18   -14.129903    0      1      
iter:  44  19:35:12  -5.62  -5.08   -14.129979    0      1      
iter:  45  19:35:17  -5.83  -5.11   -14.129958    0      1      
iter:  46  19:35:22  -5.90  -5.14   -14.129966    0      1      
iter:  47  19:35:27  -6.11  -5.23   -14.130018    0      1      
iter:  48  19:35:32  -6.19  -5.81   -14.129927    0      1      
iter:  49  19:35:37  -6.39  -5.76   -14.129930    0      1      
iter:  50  19:35:42  -6.46  -5.95   -14.129926    0      1      
iter:  51  19:35:47  -6.64  -6.33   -14.129927    0      1      
iter:  52  19:35:53  -6.72  -6.48   -14.129927    0      1      
iter:  53  19:35:58  -6.90  -6.54   -14.129928    0      1      
iter:  54  19:36:03  -6.98  -6.34   -14.129925    0      1      
iter:  55  19:36:08  -7.15  -6.13   -14.129928    0      1      
iter:  56  19:36:13  -7.24  -6.12   -14.129930    0      1      
iter:  57  19:36:18  -7.41  -6.23   -14.129935    0      1      

Converged after 57 iterations.

Dipole moment: (-0.878190, 1.344046, -0.000000) |e|*Ang

Energy contributions relative to reference atoms: (reference = -412395.464894)

Kinetic:        +22.509465
Potential:      -18.235348
External:        +0.000000
XC:             -18.242132
Entropy (-ST):   +0.000000
Local:           -0.161920
--------------------------
Free energy:    -14.129935
Extrapolated:   -14.129935

Fermi level: -4.91366

 Band  Eigenvalues  Occupancy
    0    -65.13232    2.00000
    1    -34.63035    2.00000
    2    -34.34448    2.00000
    3    -34.11369    2.00000
    4    -15.81672    2.00000
    5    -12.18305    2.00000
    6     -6.54862    2.00000
    7     -5.54959    2.00000
    8     -5.33980    2.00000
    9     -4.94065    2.00000
   10     -4.91366    1.00000
   11     -3.25305    0.00000
   12     -3.02747    0.00000
   13     -1.29135    0.00000
   14     -0.55454    0.00000
   15      0.31138    0.00000
   16      0.76022    0.00000
   17      1.39004    0.00000
   18      2.38916    0.00000
   19      2.49143    0.00000
   20      3.18346    0.00000

Writing to 3_57799_Pm_PBE_yz0_1900.gpw (mode='all')

Timing:                              incl.     excl.
-----------------------------------------------------------
Hamiltonian:                         8.844     0.000   0.0% |
 Atomic:                             0.194     0.001   0.0% |
  XC Correction:                     0.194     0.194   0.1% |
 Calculate atomic Hamiltonians:      0.009     0.009   0.0% |
 Communicate:                        0.000     0.000   0.0% |
 Hartree integrate/restrict:         0.034     0.034   0.0% |
 Initialize Hamiltonian:             0.000     0.000   0.0% |
 Poisson:                            6.425     6.425   2.0% ||
 XC 3D grid:                         2.172     2.172   0.7% |
 vbar:                               0.011     0.011   0.0% |
LCAO initialization:                 0.816     0.569   0.2% |
 LCAO eigensolver:                   0.076     0.000   0.0% |
  Calculate projections:             0.000     0.000   0.0% |
  DenseAtomicCorrection:             0.000     0.000   0.0% |
  Distribute overlap matrix:         0.000     0.000   0.0% |
  Orbital Layouts:                   0.000     0.000   0.0% |
  Potential matrix:                  0.075     0.075   0.0% |
 LCAO to grid:                       0.169     0.169   0.1% |
 Set positions (LCAO WFS):           0.004     0.000   0.0% |
  Basic WFS set positions:           0.000     0.000   0.0% |
  Basis functions set positions:     0.000     0.000   0.0% |
  TCI: Calculate S, T, P:            0.003     0.003   0.0% |
SCF-cycle:                         317.289     0.022   0.0% |
 Davidson:                         119.248    21.671   6.6% |--|
  Apply hamiltonian:                 9.168     9.168   2.8% ||
  Subspace diag:                    34.075     0.006   0.0% |
   calc_h_matrix:                   16.910     7.762   2.4% ||
    Apply hamiltonian:               9.149     9.149   2.8% ||
   diagonalize:                      0.013     0.013   0.0% |
   rotate_psi:                      17.146    17.146   5.2% |-|
  calc. matrices:                   37.262    28.114   8.6% |--|
   Apply hamiltonian:                9.148     9.148   2.8% ||
  diagonalize:                       0.045     0.045   0.0% |
  rotate_psi:                       17.026    17.026   5.2% |-|
 Density:                            4.326     0.001   0.0% |
  Atomic density matrices:           0.037     0.037   0.0% |
  Mix:                               3.118     3.118   1.0% |
  Multipole moments:                 0.010     0.010   0.0% |
  Pseudo density:                    1.160     1.159   0.4% |
   Symmetrize density:               0.001     0.001   0.0% |
 Hamiltonian:                      193.494     0.006   0.0% |
  Atomic:                           10.524     0.046   0.0% |
   XC Correction:                   10.478    10.478   3.2% ||
  Calculate atomic Hamiltonians:     0.468     0.468   0.1% |
  Communicate:                       0.000     0.000   0.0% |
  Hartree integrate/restrict:        1.836     1.836   0.6% |
  Poisson:                          62.041    62.041  18.9% |-------|
  XC 3D grid:                      118.280   118.280  36.1% |-------------|
  vbar:                              0.339     0.339   0.1% |
 Orthonormalize:                     0.199     0.000   0.0% |
  calc_s_matrix:                     0.073     0.073   0.0% |
  inverse-cholesky:                  0.000     0.000   0.0% |
  projections:                       0.028     0.028   0.0% |
  rotate_psi_s:                      0.097     0.097   0.0% |
Set symmetry:                        0.001     0.001   0.0% |
Other:                               1.129     1.129   0.3% |
-----------------------------------------------------------
Total:                                       328.079 100.0%

Memory usage: 637.52 MiB
Date: Mon Aug 20 19:36:18 2018
