
  ___ ___ ___ _ _ _  
 |   |   |_  | | | | 
 | | | | | . | | | | 
 |__ |  _|___|_____|  1.4.0
 |___|_|             

User:   ???@3fe09ff0504a
Date:   Mon Aug 20 18:34:34 2018
Arch:   x86_64
Pid:    1620
Python: 3.7.0
gpaw:   /app/gpaw/software/venv/lib/python3.7/site-packages/gpaw
_gpaw:  /app/gpaw/software/venv/lib/python3.7/site-packages/
        _gpaw.cpython-37m-x86_64-linux-gnu.so
ase:    /app/gpaw/software/venv/lib/python3.7/site-packages/ase (version 3.16.2)
numpy:  /app/gpaw/software/venv/lib/python3.7/site-packages/numpy (version 1.15.0)
scipy:  /app/gpaw/software/venv/lib/python3.7/site-packages/scipy (version 1.1.0)
units:  Angstrom and eV
cores:  1

Input parameters:
  gpts: [72 64 72]
  maxiter: 150
  mixer: {backend: pulay,
          beta: None,
          method: separate,
          nmaxold: None,
          weight: None}
  xc: PBE

System changes: positions, numbers, cell, pbc, initial_charges, initial_magmoms 

Initialize ...

Hf-setup:
  name: Hafnium
  id: d03a45b6fa1dd7f07e443d1513edf499
  Z: 72
  valence: 12
  core: 60
  charge: 0.0
  file: /app/gpaw/datasets/Hf.PBE
  cutoffs: 1.30(comp), 2.36(filt), 4.02(core), lmax=2
  valence states:
                energy  radius
    5s(2.00)   -66.831   1.397
    6s(2.00)    -5.097   1.397
    5p(6.00)   -35.599   1.307
    6p(0.00)    -1.401   1.307
    5d(2.00)    -2.699   1.334
    *d          24.513   1.334

  Using partial waves for Hf as LCAO basis

N-setup:
  name: Nitrogen
  id: 45c8c9c739e7b131496b9fd2deb94bff
  Z: 7
  valence: 5
  core: 2
  charge: 0.0
  file: /app/gpaw/datasets/N.PBE
  cutoffs: 0.58(comp), 1.11(filt), 0.96(core), lmax=2
  valence states:
                energy  radius
    2s(2.00)   -18.583   0.603
    2p(3.00)    -7.089   0.529
    *s           8.629   0.603
    *p          20.123   0.529
    *d           0.000   0.577

  Using partial waves for N as LCAO basis

C-setup:
  name: Carbon
  id: 2f012631b351e3618121587a96c50fca
  Z: 6
  valence: 4
  core: 2
  charge: 0.0
  file: /app/gpaw/datasets/C.PBE
  cutoffs: 0.64(comp), 1.14(filt), 1.14(core), lmax=2
  valence states:
                energy  radius
    2s(2.00)   -13.751   0.635
    2p(2.00)    -5.285   0.635
    *s          13.461   0.635
    *p          21.927   0.635
    *d           0.000   0.635

  Using partial waves for C as LCAO basis

Reference energy: -412395.464894

Spin-paired calculation

Occupation numbers:
  Fermi-Dirac: width=0.0000 eV

Convergence criteria:
  Maximum total energy change: 0.0005 eV / electron
  Maximum integral of absolute density change: 0.0001 electrons
  Maximum integral of absolute eigenstate change: 4e-08 eV^2
  Maximum number of iterations: 150

Symmetries present (total): 1

  ( 1  0  0)
  ( 0  1  0)
  ( 0  0  1)

1 k-point (Gamma)
1 k-point in the irreducible part of the Brillouin zone
       k-points in crystal coordinates                weights
   0:     0.00000000    0.00000000    0.00000000          1/1

Wave functions: Uniform real-space grid
  Kinetic energy operator: 6*3+1=19 point O(h^6) finite-difference Laplacian
  ScaLapack parameters: grid=1x1, blocksize=None 

Eigensolver
   Davidson(niter=1, smin=None, normalize=True) 

Densities:
  Coarse grid: 72*64*72 grid
  Fine grid: 144*128*144 grid
  Total Charge: 0.000000 

Density mixing:
  Method: separate
  Backend: pulay
  Linear mixing parameter: 0.25
  Mixing with 3 old densities
  No damping of long wave oscillations 

Hamiltonian:
  XC and Coulomb potentials evaluated on a 144*128*144 grid
  Using the PBE Exchange-Correlation functional
  Interpolation: tri-quintic (5. degree polynomial)
  Poisson solver: Jacobi solver with 5 multi-grid levels
    Coarsest grid: 9 x 8 x 9 points
    Stencil: 6*3+1=19 point O(h^6) finite-difference Laplacian
    Max iterations: 1000
    Tolerance: 2.000000e-10 

Memory estimate:
  Process memory now: 604.50 MiB
  Calculator: 325.36 MiB
    Density: 113.90 MiB
      Arrays: 64.29 MiB
      Localized functions: 35.07 MiB
      Mixer: 14.54 MiB
    Hamiltonian: 92.51 MiB
      Arrays: 42.05 MiB
      XC: 0.00 MiB
      Poisson: 48.10 MiB
      vbar: 2.35 MiB
    Wavefunctions: 118.96 MiB
      Arrays psit_nG: 50.88 MiB
      Eigensolver: 63.03 MiB
      Projections: 0.01 MiB
      Projectors: 5.04 MiB

Total number of cores used: 1

Number of atoms: 3
Number of atomic orbitals: 21
Number of bands in calculation: 21
Bands to converge: occupied states only
Number of valence electrons: 21

... initialized

Initializing position-dependent things.

Density initialized from atomic densities
Creating initial wave functions:
  21 bands from LCAO basis set

      .--------------------.  
     /|                    |  
    / |                    |  
   /  |                    |  
  /   |                    |  
 *    |                    |  
 |    |                    |  
 |    |     Hf   C         |  
 |    |    N               |  
 |    |                    |  
 |    .--------------------.  
 |   /                    /   
 |  /                    /    
 | /                    /     
 |/                    /      
 *--------------------*       

Positions:
   0 Hf     3.385050    4.901250    4.250000    ( 0.0000,  0.0000,  0.0000)
   1 N      3.385050    3.098750    4.250000    ( 0.0000,  0.0000,  0.0000)
   2 C      5.114950    4.811250    4.250000    ( 0.0000,  0.0000,  0.0000)

Unit cell:
           periodic     x           y           z      points  spacing
  1. axis:    no     8.500000    0.000000    0.000000    72     0.1181
  2. axis:    no     0.000000    8.000000    0.000000    64     0.1250
  3. axis:    no     0.000000    0.000000    8.500000    72     0.1181

  Lengths:   8.500000   8.000000   8.500000
  Angles:   90.000000  90.000000  90.000000

Effective grid spacing dv^(1/3) = 0.1203

                     log10-error:    total        iterations:
           time      wfs    density  energy       fermi  poisson
iter:   1  18:34:49  +2.41   +inf   -18.149376    0      15     
iter:   2  18:34:52  +1.21   +inf   -18.794848    0             
iter:   3  18:34:54  +0.63   +inf   -18.999565    0             
iter:   4  18:35:05  +0.63  -0.72   -15.612037    0      11     
iter:   5  18:35:14  +0.79  -0.83   -14.944224    0      9      
iter:   6  18:35:24  +0.52  -0.97   -14.149594    0      10     
iter:   7  18:35:34  +0.28  -1.23   -14.050181    0      9      
iter:   8  18:35:43  +0.50  -1.51   -14.063234    0      8      
iter:   9  18:35:51  -0.15  -1.81   -14.081811    0      7      
iter:  10  18:35:59  +0.09  -2.02   -14.087240    0      5      
iter:  11  18:36:07  -0.69  -2.24   -14.090195    0      5      
iter:  12  18:36:14  -0.55  -2.39   -14.091716    0      5      
iter:  13  18:36:22  -1.21  -2.67   -14.093136    0      4      
iter:  14  18:36:30  -0.95  -2.68   -14.094190    0      5      
iter:  15  18:36:37  -1.69  -3.06   -14.094336    0      4      
iter:  16  18:36:44  -1.32  -3.21   -14.094734    0      4      
iter:  17  18:36:51  -2.12  -3.15   -14.095217    0      3      
iter:  18  18:36:57  -1.73  -3.21   -14.095341    0      3      
iter:  19  18:37:04  -2.47  -3.25   -14.095540    0      5      
iter:  20  18:37:12  -2.35  -3.28   -14.095063    0      4      
iter:  21  18:37:18  -2.58  -3.60   -14.095301    0      2      
iter:  22  18:37:24  -2.70  -3.67   -14.095542    0      2      
iter:  23  18:37:31  -2.88  -3.76   -14.095496    0      3      
iter:  24  18:37:38  -3.01  -3.96   -14.095551    0      3      
iter:  25  18:37:44  -3.22  -4.49   -14.095557    0      1      
iter:  26  18:37:50  -3.30  -4.50   -14.095651    0      1      
iter:  27  18:37:56  -3.50  -4.47   -14.095364    0      1      
iter:  28  18:38:01  -3.57  -4.21   -14.095581    0      1      
iter:  29  18:38:07  -3.78  -4.23   -14.095570    0      1      
iter:  30  18:38:13  -3.86  -4.18   -14.095297    0      2      
iter:  31  18:38:19  -4.01  -3.94   -14.095721    0      2      
iter:  32  18:38:26  -4.22  -4.24   -14.095625    0      2      
iter:  33  18:38:32  -4.39  -4.56   -14.095606    0      2      
iter:  34  18:38:38  -4.53  -4.78   -14.095478    0      1      
iter:  35  18:38:44  -4.70  -4.93   -14.095428    0      1      
iter:  36  18:38:50  -4.83  -5.08   -14.095407    0      1      
iter:  37  18:38:55  -4.97  -5.40   -14.095438    0      1      
iter:  38  18:39:02  -5.12  -5.45   -14.095453    0      1      
iter:  39  18:39:08  -5.25  -5.29   -14.095449    0      1      
iter:  40  18:39:13  -5.40  -5.18   -14.095453    0      1      
iter:  41  18:39:19  -5.53  -5.10   -14.095448    0      1      
iter:  42  18:39:25  -5.67  -5.05   -14.095438    0      1      
iter:  43  18:39:31  -5.76  -4.98   -14.095494    0      1      
iter:  44  18:39:37  -5.98  -5.00   -14.095395    0      1      
iter:  45  18:39:43  -5.95  -4.86   -14.095575    0      1      
iter:  46  18:39:49  -6.32  -5.12   -14.095527    0      1      
iter:  47  18:39:55  -6.34  -5.25   -14.095486    0      1      
iter:  48  18:40:01  -6.61  -5.37   -14.095466    0      1      
iter:  49  18:40:07  -6.63  -5.60   -14.095444    0      1      
iter:  50  18:40:12  -6.88  -5.56   -14.095453    0      1      
iter:  51  18:40:18  -6.88  -6.33   -14.095457    0      1      
iter:  52  18:40:24  -7.17  -6.31   -14.095454    0      1      
iter:  53  18:40:30  -7.19  -6.26   -14.095453    0      1      
iter:  54  18:40:36  -7.44  -6.21   -14.095453    0      1      

Converged after 54 iterations.

Dipole moment: (-0.883563, 1.229839, 0.000000) |e|*Ang

Energy contributions relative to reference atoms: (reference = -412395.464894)

Kinetic:        +31.572975
Potential:      -25.623175
External:        +0.000000
XC:             -19.930555
Entropy (-ST):   +0.000000
Local:           -0.114698
--------------------------
Free energy:    -14.095453
Extrapolated:   -14.095453

Fermi level: -4.81543

 Band  Eigenvalues  Occupancy
    0    -64.84005    2.00000
    1    -34.40872    2.00000
    2    -34.07053    2.00000
    3    -34.04002    2.00000
    4    -15.82581    2.00000
    5    -12.16279    2.00000
    6     -6.77795    2.00000
    7     -5.66122    2.00000
    8     -5.42411    2.00000
    9     -5.14977    2.00000
   10     -4.81543    1.00000
   11     -3.33869    0.00000
   12     -2.93205    0.00000
   13     -1.16093    0.00000
   14     -0.38896    0.00000
   15      0.75458    0.00000
   16      1.03465    0.00000
   17      1.70260    0.00000
   18      2.53742    0.00000
   19      2.66486    0.00000
   20      3.20114    0.00000

Writing to 3_57799_Pm_PBE_yz0_0899.gpw (mode='all')

Timing:                              incl.     excl.
-----------------------------------------------------------
Hamiltonian:                         9.619     0.000   0.0% |
 Atomic:                             0.203     0.001   0.0% |
  XC Correction:                     0.201     0.201   0.1% |
 Calculate atomic Hamiltonians:      0.009     0.009   0.0% |
 Communicate:                        0.000     0.000   0.0% |
 Hartree integrate/restrict:         0.037     0.037   0.0% |
 Initialize Hamiltonian:             0.000     0.000   0.0% |
 Poisson:                            7.061     7.061   2.0% ||
 XC 3D grid:                         2.293     2.293   0.6% |
 vbar:                               0.015     0.015   0.0% |
LCAO initialization:                 0.844     0.586   0.2% |
 LCAO eigensolver:                   0.079     0.000   0.0% |
  Calculate projections:             0.000     0.000   0.0% |
  DenseAtomicCorrection:             0.000     0.000   0.0% |
  Distribute overlap matrix:         0.000     0.000   0.0% |
  Orbital Layouts:                   0.000     0.000   0.0% |
  Potential matrix:                  0.078     0.078   0.0% |
 LCAO to grid:                       0.175     0.175   0.0% |
 Set positions (LCAO WFS):           0.004     0.000   0.0% |
  Basic WFS set positions:           0.000     0.000   0.0% |
  Basis functions set positions:     0.000     0.000   0.0% |
  TCI: Calculate S, T, P:            0.003     0.003   0.0% |
SCF-cycle:                         349.565     0.022   0.0% |
 Davidson:                         145.129    23.260   6.4% |--|
  Apply hamiltonian:                 9.685     9.685   2.7% ||
  Subspace diag:                    42.741     0.005   0.0% |
   calc_h_matrix:                   21.617    11.758   3.3% ||
    Apply hamiltonian:               9.859     9.859   2.7% ||
   diagonalize:                      0.013     0.013   0.0% |
   rotate_psi:                      21.106    21.106   5.8% |-|
  calc. matrices:                   47.431    37.835  10.5% |---|
   Apply hamiltonian:                9.597     9.597   2.7% ||
  diagonalize:                       0.044     0.044   0.0% |
  rotate_psi:                       21.967    21.967   6.1% |-|
 Density:                            4.776     0.001   0.0% |
  Atomic density matrices:           0.037     0.037   0.0% |
  Mix:                               3.315     3.315   0.9% |
  Multipole moments:                 0.010     0.010   0.0% |
  Pseudo density:                    1.413     1.412   0.4% |
   Symmetrize density:               0.001     0.001   0.0% |
 Hamiltonian:                      199.377     0.006   0.0% |
  Atomic:                           10.657     0.048   0.0% |
   XC Correction:                   10.610    10.610   2.9% ||
  Calculate atomic Hamiltonians:     0.471     0.471   0.1% |
  Communicate:                       0.000     0.000   0.0% |
  Hartree integrate/restrict:        2.162     2.162   0.6% |
  Poisson:                          67.872    67.872  18.8% |-------|
  XC 3D grid:                      117.760   117.760  32.6% |------------|
  vbar:                              0.448     0.448   0.1% |
 Orthonormalize:                     0.261     0.000   0.0% |
  calc_s_matrix:                     0.088     0.088   0.0% |
  inverse-cholesky:                  0.000     0.000   0.0% |
  projections:                       0.029     0.029   0.0% |
  rotate_psi_s:                      0.143     0.143   0.0% |
Set symmetry:                        0.001     0.001   0.0% |
Other:                               1.199     1.199   0.3% |
-----------------------------------------------------------
Total:                                       361.228 100.0%

Memory usage: 604.50 MiB
Date: Mon Aug 20 18:40:36 2018
