
  ___ ___ ___ _ _ _  
 |   |   |_  | | | | 
 | | | | | . | | | | 
 |__ |  _|___|_____|  1.4.0
 |___|_|             

User:   ???@3fe09ff0504a
Date:   Mon Aug 20 18:14:13 2018
Arch:   x86_64
Pid:    1616
Python: 3.7.0
gpaw:   /app/gpaw/software/venv/lib/python3.7/site-packages/gpaw
_gpaw:  /app/gpaw/software/venv/lib/python3.7/site-packages/
        _gpaw.cpython-37m-x86_64-linux-gnu.so
ase:    /app/gpaw/software/venv/lib/python3.7/site-packages/ase (version 3.16.2)
numpy:  /app/gpaw/software/venv/lib/python3.7/site-packages/numpy (version 1.15.0)
scipy:  /app/gpaw/software/venv/lib/python3.7/site-packages/scipy (version 1.1.0)
units:  Angstrom and eV
cores:  1

Input parameters:
  gpts: [72 64 72]
  maxiter: 150
  mixer: {backend: pulay,
          beta: None,
          method: separate,
          nmaxold: None,
          weight: None}
  xc: PBE

System changes: positions, numbers, cell, pbc, initial_charges, initial_magmoms 

Initialize ...

Hf-setup:
  name: Hafnium
  id: d03a45b6fa1dd7f07e443d1513edf499
  Z: 72
  valence: 12
  core: 60
  charge: 0.0
  file: /app/gpaw/datasets/Hf.PBE
  cutoffs: 1.30(comp), 2.36(filt), 4.02(core), lmax=2
  valence states:
                energy  radius
    5s(2.00)   -66.831   1.397
    6s(2.00)    -5.097   1.397
    5p(6.00)   -35.599   1.307
    6p(0.00)    -1.401   1.307
    5d(2.00)    -2.699   1.334
    *d          24.513   1.334

  Using partial waves for Hf as LCAO basis

N-setup:
  name: Nitrogen
  id: 45c8c9c739e7b131496b9fd2deb94bff
  Z: 7
  valence: 5
  core: 2
  charge: 0.0
  file: /app/gpaw/datasets/N.PBE
  cutoffs: 0.58(comp), 1.11(filt), 0.96(core), lmax=2
  valence states:
                energy  radius
    2s(2.00)   -18.583   0.603
    2p(3.00)    -7.089   0.529
    *s           8.629   0.603
    *p          20.123   0.529
    *d           0.000   0.577

  Using partial waves for N as LCAO basis

C-setup:
  name: Carbon
  id: 2f012631b351e3618121587a96c50fca
  Z: 6
  valence: 4
  core: 2
  charge: 0.0
  file: /app/gpaw/datasets/C.PBE
  cutoffs: 0.64(comp), 1.14(filt), 1.14(core), lmax=2
  valence states:
                energy  radius
    2s(2.00)   -13.751   0.635
    2p(2.00)    -5.285   0.635
    *s          13.461   0.635
    *p          21.927   0.635
    *d           0.000   0.635

  Using partial waves for C as LCAO basis

Reference energy: -412395.464894

Spin-paired calculation

Occupation numbers:
  Fermi-Dirac: width=0.0000 eV

Convergence criteria:
  Maximum total energy change: 0.0005 eV / electron
  Maximum integral of absolute density change: 0.0001 electrons
  Maximum integral of absolute eigenstate change: 4e-08 eV^2
  Maximum number of iterations: 150

Symmetries present (total): 1

  ( 1  0  0)
  ( 0  1  0)
  ( 0  0  1)

1 k-point (Gamma)
1 k-point in the irreducible part of the Brillouin zone
       k-points in crystal coordinates                weights
   0:     0.00000000    0.00000000    0.00000000          1/1

Wave functions: Uniform real-space grid
  Kinetic energy operator: 6*3+1=19 point O(h^6) finite-difference Laplacian
  ScaLapack parameters: grid=1x1, blocksize=None 

Eigensolver
   Davidson(niter=1, smin=None, normalize=True) 

Densities:
  Coarse grid: 72*64*72 grid
  Fine grid: 144*128*144 grid
  Total Charge: 0.000000 

Density mixing:
  Method: separate
  Backend: pulay
  Linear mixing parameter: 0.25
  Mixing with 3 old densities
  No damping of long wave oscillations 

Hamiltonian:
  XC and Coulomb potentials evaluated on a 144*128*144 grid
  Using the PBE Exchange-Correlation functional
  Interpolation: tri-quintic (5. degree polynomial)
  Poisson solver: Jacobi solver with 5 multi-grid levels
    Coarsest grid: 9 x 8 x 9 points
    Stencil: 6*3+1=19 point O(h^6) finite-difference Laplacian
    Max iterations: 1000
    Tolerance: 2.000000e-10 

Memory estimate:
  Process memory now: 41.53 MiB
  Calculator: 325.36 MiB
    Density: 113.90 MiB
      Arrays: 64.29 MiB
      Localized functions: 35.07 MiB
      Mixer: 14.54 MiB
    Hamiltonian: 92.51 MiB
      Arrays: 42.05 MiB
      XC: 0.00 MiB
      Poisson: 48.10 MiB
      vbar: 2.35 MiB
    Wavefunctions: 118.96 MiB
      Arrays psit_nG: 50.88 MiB
      Eigensolver: 63.03 MiB
      Projections: 0.01 MiB
      Projectors: 5.04 MiB

Total number of cores used: 1

Number of atoms: 3
Number of atomic orbitals: 21
Number of bands in calculation: 21
Bands to converge: occupied states only
Number of valence electrons: 21

... initialized

Initializing position-dependent things.

Density initialized from atomic densities
Creating initial wave functions:
  21 bands from LCAO basis set

      .--------------------.  
     /|                    |  
    / |                    |  
   /  |                    |  
  /   |                    |  
 *    |                    |  
 |    |                    |  
 |    |     Hf   C         |  
 |    |    N               |  
 |    |                    |  
 |    .--------------------.  
 |   /                    /   
 |  /                    /    
 | /                    /     
 |/                    /      
 *--------------------*       

Positions:
   0 Hf     3.335050    4.926250    4.250000    ( 0.0000,  0.0000,  0.0000)
   1 N      3.335050    3.073750    4.250000    ( 0.0000,  0.0000,  0.0000)
   2 C      5.164950    4.886250    4.250000    ( 0.0000,  0.0000,  0.0000)

Unit cell:
           periodic     x           y           z      points  spacing
  1. axis:    no     8.500000    0.000000    0.000000    72     0.1181
  2. axis:    no     0.000000    8.000000    0.000000    64     0.1250
  3. axis:    no     0.000000    0.000000    8.500000    72     0.1181

  Lengths:   8.500000   8.000000   8.500000
  Angles:   90.000000  90.000000  90.000000

Effective grid spacing dv^(1/3) = 0.1203

                     log10-error:    total        iterations:
           time      wfs    density  energy       fermi  poisson
iter:   1  18:14:27  +2.43   +inf   -18.708006    0      15     
iter:   2  18:14:29  +1.11   +inf   -19.232554    0             
iter:   3  18:14:31  +0.54   +inf   -19.406052    0             
iter:   4  18:14:41  +0.59  -0.70   -16.638354    0      11     
iter:   5  18:14:50  +0.88  -0.76   -15.368666    0      9      
iter:   6  18:14:58  +0.52  -0.96   -14.611787    0      9      
iter:   7  18:15:07  +0.18  -1.18   -14.449849    0      9      
iter:   8  18:15:15  +0.42  -1.16   -14.502326    0      7      
iter:   9  18:15:23  -0.38  -1.39   -14.473274    0      9      
iter:  10  18:15:31  +0.17  -1.74   -14.485147    0      6      
iter:  11  18:15:38  -0.84  -1.81   -14.485276    0      6      
iter:  12  18:15:46  -0.43  -1.88   -14.479873    0      6      
iter:  13  18:15:53  -1.23  -2.16   -14.478996    0      5      
iter:  14  18:16:01  -1.19  -2.39   -14.482682    0      5      
iter:  15  18:16:08  -1.67  -1.23   -14.479894    0      5      
iter:  16  18:16:16  -1.70  -2.41   -14.480796    0      5      
iter:  17  18:16:23  -2.03  -2.36   -14.480074    0      4      
iter:  18  18:16:30  -2.10  -2.47   -14.479994    0      5      
iter:  19  18:16:38  -2.27  -2.57   -14.486498    0      5      
iter:  20  18:16:45  -2.33  -1.23   -14.480045    0      5      
iter:  21  18:16:52  -2.72  -2.61   -14.480178    0      4      
iter:  22  18:16:59  -2.92  -2.63   -14.480151    0      4      
iter:  23  18:17:06  -3.17  -2.66   -14.479991    0      4      
iter:  24  18:17:13  -3.17  -2.82   -14.481033    0      5      
iter:  25  18:17:21  -3.07  -1.23   -14.479903    0      5      
iter:  26  18:17:28  -3.47  -2.76   -14.479913    0      3      
iter:  27  18:17:34  -3.76  -2.85   -14.479927    0      3      
iter:  28  18:17:41  -3.69  -2.83   -14.479777    0      4      
iter:  29  18:17:48  -3.75  -2.73   -14.479826    0      3      
iter:  30  18:17:55  -3.76  -2.30   -14.481733    0      4      
iter:  31  18:18:02  -3.64  -1.23   -14.479898    0      4      
iter:  32  18:18:08  -4.17  -3.01   -14.479858    0      3      
iter:  33  18:18:15  -4.17  -2.94   -14.479853    0      3      
iter:  34  18:18:23  -4.63  -2.59   -14.479755    0      4      
iter:  35  18:18:29  -4.48  -2.65   -14.479822    0      3      
iter:  36  18:18:36  -4.17  -1.74   -14.479844    0      3      
iter:  37  18:18:42  -4.77  -3.15   -14.479785    0      2      
iter:  38  18:18:49  -4.98  -3.01   -14.479784    0      3      
iter:  39  18:18:55  -4.94  -2.86   -14.479827    0      4      
iter:  40  18:19:02  -4.45  -1.58   -14.479811    0      4      
iter:  41  18:19:08  -4.82  -3.03   -14.479783    0      2      
iter:  42  18:19:15  -5.26  -3.02   -14.479780    0      3      
iter:  43  18:19:22  -5.56  -2.57   -14.480781    0      3      
iter:  44  18:19:28  -5.02  -1.23   -14.479819    0      4      
iter:  45  18:19:35  -4.87  -3.18   -14.479806    0      2      
iter:  46  18:19:41  -5.04  -3.19   -14.479796    0      2      
iter:  47  18:19:47  -5.44  -2.77   -14.480529    0      3      
iter:  48  18:19:53  -4.94  -1.23   -14.479847    0      3      
iter:  49  18:20:00  -4.93  -3.12   -14.479808    0      3      
iter:  50  18:20:06  -4.66  -2.99   -14.479889    0      3      
iter:  51  18:20:13  -4.72  -1.85   -14.479771    0      3      
iter:  52  18:20:20  -4.58  -1.97   -14.479846    0      3      
iter:  53  18:20:26  -4.32  -3.01   -14.479830    0      3      
iter:  54  18:20:32  -4.22  -2.87   -14.479783    0      3      
iter:  55  18:20:39  -4.82  -1.67   -14.482066    0      3      
iter:  56  18:20:46  -4.25  -1.24   -14.479928    0      4      
iter:  57  18:20:53  -3.56  -2.86   -14.480883    0      4      
iter:  58  18:20:59  -3.21  -1.23   -14.480171    0      3      
iter:  59  18:21:05  -4.22  -1.42   -14.480705    0      3      
iter:  60  18:21:13  -3.37  -1.23   -14.480411    0      4      
iter:  61  18:21:21  -2.68  -2.34   -14.482949    0      4      
iter:  62  18:21:30  -2.68  -1.24   -14.488922    0      4      
iter:  63  18:21:37  -2.42  -1.22   -14.480618    0      4      
iter:  64  18:21:46  -2.50  -1.49   -14.498833    0      6      
iter:  65  18:21:55  -1.77  -1.74   -14.503834    0      6      
iter:  66  18:22:03  -1.60  -1.26   -14.491605    0      4      
iter:  67  18:22:12  -2.15  -1.69   -14.492106    0      6      
iter:  68  18:22:20  -2.11  -1.42   -14.495531    0      6      
iter:  69  18:22:29  -1.43  -1.92   -14.480890    0      5      
iter:  70  18:22:38  -2.22  -2.26   -14.481705    0      5      
iter:  71  18:22:47  -2.03  -1.78   -14.480398    0      5      
iter:  72  18:22:54  -3.19  -2.36   -14.479901    0      4      
iter:  73  18:23:02  -2.97  -2.73   -14.480175    0      4      
iter:  74  18:23:10  -3.69  -2.51   -14.479837    0      4      
iter:  75  18:23:17  -2.86  -2.09   -14.480249    0      4      
iter:  76  18:23:25  -3.59  -1.57   -14.480107    0      5      
iter:  77  18:23:33  -3.51  -2.58   -14.480069    0      4      
iter:  78  18:23:40  -3.85  -2.58   -14.479977    0      3      
iter:  79  18:23:49  -4.48  -2.49   -14.479912    0      4      
iter:  80  18:23:57  -4.05  -2.46   -14.479841    0      4      
iter:  81  18:24:05  -3.94  -2.77   -14.479797    0      4      
iter:  82  18:24:13  -4.02  -2.45   -14.479825    0      3      
iter:  83  18:24:21  -4.11  -2.51   -14.479754    0      3      
iter:  84  18:24:29  -4.20  -2.68   -14.481332    0      3      
iter:  85  18:24:37  -4.33  -1.23   -14.484102    0      4      
iter:  86  18:24:45  -3.75  -1.23   -14.479858    0      4      
iter:  87  18:24:54  -3.02  -1.63   -14.492982    0      5      
iter:  88  18:25:02  -1.98  -1.27   -14.511480    0      6      
iter:  89  18:25:11  -1.45  -1.67   -14.490783    0      6      
iter:  90  18:25:20  -1.44  -1.66   -14.488559    0      5      
iter:  91  18:25:28  -2.27  -1.54   -14.481875    0      5      
iter:  92  18:25:36  -2.72  -2.34   -14.481696    0      4      
iter:  93  18:25:45  -2.81  -2.31   -14.482126    0      5      
iter:  94  18:25:53  -2.28  -2.03   -14.480398    0      4      
iter:  95  18:26:02  -3.28  -2.29   -14.480190    0      4      
iter:  96  18:26:09  -2.94  -2.57   -14.479928    0      4      
iter:  97  18:26:17  -3.49  -2.68   -14.482506    0      5      
iter:  98  18:26:25  -2.76  -1.23   -14.480193    0      5      
iter:  99  18:26:33  -3.45  -2.50   -14.479984    0      4      
iter: 100  18:26:41  -3.95  -2.77   -14.479984    0      3      
iter: 101  18:26:49  -4.11  -2.74   -14.479811    0      4      
iter: 102  18:26:57  -4.10  -2.86   -14.480047    0      4      
iter: 103  18:27:05  -3.48  -1.49   -14.479935    0      4      
iter: 104  18:27:13  -3.92  -2.28   -14.479915    0      3      
iter: 105  18:27:21  -4.37  -2.90   -14.479845    0      3      
iter: 106  18:27:29  -4.80  -2.88   -14.479855    0      4      
iter: 107  18:27:37  -4.12  -1.89   -14.479971    0      4      
iter: 108  18:27:44  -4.27  -1.63   -14.479898    0      4      
iter: 109  18:27:51  -4.22  -2.95   -14.479834    0      3      
iter: 110  18:27:59  -4.87  -3.00   -14.479780    0      4      
iter: 111  18:28:06  -4.09  -2.52   -14.479767    0      3      
iter: 112  18:28:14  -4.56  -1.91   -14.479866    0      3      
iter: 113  18:28:20  -4.44  -2.15   -14.479835    0      2      
iter: 114  18:28:26  -4.77  -2.73   -14.479831    0      3      
iter: 115  18:28:33  -3.98  -2.83   -14.481219    0      4      
iter: 116  18:28:40  -4.12  -1.23   -14.480717    0      4      
iter: 117  18:28:47  -3.63  -1.51   -14.479882    0      4      
iter: 118  18:28:54  -3.99  -2.23   -14.480222    0      4      
iter: 119  18:29:01  -3.16  -2.49   -14.479940    0      4      
iter: 120  18:29:07  -3.30  -2.09   -14.479766    0      3      
iter: 121  18:29:14  -4.57  -2.58   -14.482414    0      4      
iter: 122  18:29:21  -3.94  -1.23   -14.479897    0      4      
iter: 123  18:29:28  -3.75  -2.10   -14.479809    0      3      
iter: 124  18:29:34  -4.66  -2.93   -14.479818    0      2      
iter: 125  18:29:40  -4.77  -2.82   -14.479755    0      3      
iter: 126  18:29:47  -5.11  -2.15   -14.481065    0      3      
iter: 127  18:29:54  -4.71  -1.23   -14.479859    0      4      
iter: 128  18:30:00  -4.13  -2.99   -14.479865    0      3      
iter: 129  18:30:07  -3.89  -2.95   -14.479791    0      3      
iter: 130  18:30:13  -5.11  -3.12   -14.479905    0      3      
iter: 131  18:30:19  -4.80  -1.23   -14.479895    0      3      
iter: 132  18:30:26  -4.45  -2.29   -14.479813    0      3      
iter: 133  18:30:31  -5.42  -3.16   -14.479746    0      1      
iter: 134  18:30:38  -5.17  -3.16   -14.479734    0      3      
iter: 135  18:30:45  -4.67  -2.31   -14.481007    0      3      
iter: 136  18:30:53  -4.18  -1.23   -14.479856    0      3      
iter: 137  18:31:01  -4.95  -3.17   -14.479929    0      1      
iter: 138  18:31:08  -5.14  -3.17   -14.479827    0      2      
iter: 139  18:31:15  -5.24  -2.79   -14.481536    0      4      
iter: 140  18:31:24  -4.77  -1.23   -14.479826    0      4      
iter: 141  18:31:30  -4.68  -3.18   -14.479758    0      1      
iter: 142  18:31:37  -5.40  -3.18   -14.479734    0      1      
iter: 143  18:31:44  -5.23  -3.14   -14.480184    0      3      
iter: 144  18:31:51  -5.04  -1.23   -14.479834    0      3      
iter: 145  18:31:58  -5.22  -3.18   -14.479820    0      1      
iter: 146  18:32:04  -5.59  -3.18   -14.479805    0      1      
iter: 147  18:32:12  -5.54  -3.17   -14.479934    0      3      
iter: 148  18:32:19  -4.96  -1.23   -14.479847    0      3      
iter: 149  18:32:25  -5.27  -3.18   -14.479818    0      1      
iter: 150  18:32:32  -5.62  -3.18   -14.479796    0      1      

Did not converge!

Here are some tips:

1) Make sure the geometry and spin-state is physically sound.
2) Use less aggressive density mixing.
3) Solve the eigenvalue problem more accurately at each scf-step.
4) Use a smoother distribution function for the occupation numbers.
5) Try adding more empty states.
6) Use enough k-points.
7) Don't let your structure optimization algorithm take too large steps.
8) Solve the Poisson equation more accurately.
9) Better initial guess for the wave functions.

See details here:

    https://wiki.fysik.dtu.dk/gpaw/documentation/convergence.html


Timing:                              incl.     excl.
-----------------------------------------------------------
Hamiltonian:                         9.088     0.000   0.0% |
 Atomic:                             0.197     0.001   0.0% |
  XC Correction:                     0.196     0.196   0.0% |
 Calculate atomic Hamiltonians:      0.009     0.009   0.0% |
 Communicate:                        0.000     0.000   0.0% |
 Hartree integrate/restrict:         0.037     0.037   0.0% |
 Initialize Hamiltonian:             0.000     0.000   0.0% |
 Poisson:                            6.634     6.634   0.6% |
 XC 3D grid:                         2.199     2.199   0.2% |
 vbar:                               0.011     0.011   0.0% |
LCAO initialization:                 0.830     0.581   0.1% |
 LCAO eigensolver:                   0.076     0.000   0.0% |
  Calculate projections:             0.000     0.000   0.0% |
  DenseAtomicCorrection:             0.000     0.000   0.0% |
  Distribute overlap matrix:         0.000     0.000   0.0% |
  Orbital Layouts:                   0.000     0.000   0.0% |
  Potential matrix:                  0.075     0.075   0.0% |
 LCAO to grid:                       0.169     0.169   0.0% |
 Set positions (LCAO WFS):           0.005     0.000   0.0% |
  Basic WFS set positions:           0.000     0.000   0.0% |
  Basis functions set positions:     0.000     0.000   0.0% |
  TCI: Calculate S, T, P:            0.004     0.004   0.0% |
SCF-cycle:                        1091.999     0.058   0.0% |
 Davidson:                         429.560    67.671   6.1% |-|
  Apply hamiltonian:                27.802    27.802   2.5% ||
  Subspace diag:                   132.285     0.016   0.0% |
   calc_h_matrix:                   63.953    36.222   3.3% ||
    Apply hamiltonian:              27.731    27.731   2.5% ||
   diagonalize:                      0.036     0.036   0.0% |
   rotate_psi:                      68.281    68.281   6.2% |-|
  calc. matrices:                  137.841   110.250  10.0% |---|
   Apply hamiltonian:               27.591    27.591   2.5% ||
  diagonalize:                       0.126     0.126   0.0% |
  rotate_psi:                       63.834    63.834   5.8% |-|
 Density:                           14.240     0.004   0.0% |
  Atomic density matrices:           0.108     0.108   0.0% |
  Mix:                               9.877     9.877   0.9% |
  Multipole moments:                 0.028     0.028   0.0% |
  Pseudo density:                    4.223     4.220   0.4% |
   Symmetrize density:               0.003     0.003   0.0% |
 Hamiltonian:                      647.937     0.019   0.0% |
  Atomic:                           31.361     0.142   0.0% |
   XC Correction:                   31.219    31.219   2.8% ||
  Calculate atomic Hamiltonians:     1.366     1.366   0.1% |
  Communicate:                       0.001     0.001   0.0% |
  Hartree integrate/restrict:        6.451     6.451   0.6% |
  Poisson:                         268.231   268.231  24.3% |---------|
  XC 3D grid:                      339.169   339.169  30.7% |-----------|
  vbar:                              1.339     1.339   0.1% |
 Orthonormalize:                     0.205     0.000   0.0% |
  calc_s_matrix:                     0.076     0.076   0.0% |
  inverse-cholesky:                  0.000     0.000   0.0% |
  projections:                       0.028     0.028   0.0% |
  rotate_psi_s:                      0.100     0.100   0.0% |
Set symmetry:                        0.001     0.001   0.0% |
Other:                               1.209     1.209   0.1% |
-----------------------------------------------------------
Total:                                      1103.127 100.0%

Memory usage: 597.91 MiB
Date: Mon Aug 20 18:32:36 2018
