
  ___ ___ ___ _ _ _  
 |   |   |_  | | | | 
 | | | | | . | | | | 
 |__ |  _|___|_____|  1.4.0
 |___|_|             

User:   ???@3fe09ff0504a
Date:   Mon Aug 20 18:52:48 2018
Arch:   x86_64
Pid:    1620
Python: 3.7.0
gpaw:   /app/gpaw/software/venv/lib/python3.7/site-packages/gpaw
_gpaw:  /app/gpaw/software/venv/lib/python3.7/site-packages/
        _gpaw.cpython-37m-x86_64-linux-gnu.so
ase:    /app/gpaw/software/venv/lib/python3.7/site-packages/ase (version 3.16.2)
numpy:  /app/gpaw/software/venv/lib/python3.7/site-packages/numpy (version 1.15.0)
scipy:  /app/gpaw/software/venv/lib/python3.7/site-packages/scipy (version 1.1.0)
units:  Angstrom and eV
cores:  1

Input parameters:
  gpts: [72 64 72]
  maxiter: 150
  mixer: {backend: pulay,
          beta: None,
          method: separate,
          nmaxold: None,
          weight: None}
  xc: PBE

System changes: positions, numbers, cell, pbc, initial_charges, initial_magmoms 

Initialize ...

Hf-setup:
  name: Hafnium
  id: d03a45b6fa1dd7f07e443d1513edf499
  Z: 72
  valence: 12
  core: 60
  charge: 0.0
  file: /app/gpaw/datasets/Hf.PBE
  cutoffs: 1.30(comp), 2.36(filt), 4.02(core), lmax=2
  valence states:
                energy  radius
    5s(2.00)   -66.831   1.397
    6s(2.00)    -5.097   1.397
    5p(6.00)   -35.599   1.307
    6p(0.00)    -1.401   1.307
    5d(2.00)    -2.699   1.334
    *d          24.513   1.334

  Using partial waves for Hf as LCAO basis

N-setup:
  name: Nitrogen
  id: 45c8c9c739e7b131496b9fd2deb94bff
  Z: 7
  valence: 5
  core: 2
  charge: 0.0
  file: /app/gpaw/datasets/N.PBE
  cutoffs: 0.58(comp), 1.11(filt), 0.96(core), lmax=2
  valence states:
                energy  radius
    2s(2.00)   -18.583   0.603
    2p(3.00)    -7.089   0.529
    *s           8.629   0.603
    *p          20.123   0.529
    *d           0.000   0.577

  Using partial waves for N as LCAO basis

C-setup:
  name: Carbon
  id: 2f012631b351e3618121587a96c50fca
  Z: 6
  valence: 4
  core: 2
  charge: 0.0
  file: /app/gpaw/datasets/C.PBE
  cutoffs: 0.64(comp), 1.14(filt), 1.14(core), lmax=2
  valence states:
                energy  radius
    2s(2.00)   -13.751   0.635
    2p(2.00)    -5.285   0.635
    *s          13.461   0.635
    *p          21.927   0.635
    *d           0.000   0.635

  Using partial waves for C as LCAO basis

Reference energy: -412395.464894

Spin-paired calculation

Occupation numbers:
  Fermi-Dirac: width=0.0000 eV

Convergence criteria:
  Maximum total energy change: 0.0005 eV / electron
  Maximum integral of absolute density change: 0.0001 electrons
  Maximum integral of absolute eigenstate change: 4e-08 eV^2
  Maximum number of iterations: 150

Symmetries present (total): 1

  ( 1  0  0)
  ( 0  1  0)
  ( 0  0  1)

1 k-point (Gamma)
1 k-point in the irreducible part of the Brillouin zone
       k-points in crystal coordinates                weights
   0:     0.00000000    0.00000000    0.00000000          1/1

Wave functions: Uniform real-space grid
  Kinetic energy operator: 6*3+1=19 point O(h^6) finite-difference Laplacian
  ScaLapack parameters: grid=1x1, blocksize=None 

Eigensolver
   Davidson(niter=1, smin=None, normalize=True) 

Densities:
  Coarse grid: 72*64*72 grid
  Fine grid: 144*128*144 grid
  Total Charge: 0.000000 

Density mixing:
  Method: separate
  Backend: pulay
  Linear mixing parameter: 0.25
  Mixing with 3 old densities
  No damping of long wave oscillations 

Hamiltonian:
  XC and Coulomb potentials evaluated on a 144*128*144 grid
  Using the PBE Exchange-Correlation functional
  Interpolation: tri-quintic (5. degree polynomial)
  Poisson solver: Jacobi solver with 5 multi-grid levels
    Coarsest grid: 9 x 8 x 9 points
    Stencil: 6*3+1=19 point O(h^6) finite-difference Laplacian
    Max iterations: 1000
    Tolerance: 2.000000e-10 

Memory estimate:
  Process memory now: 610.62 MiB
  Calculator: 325.36 MiB
    Density: 113.90 MiB
      Arrays: 64.29 MiB
      Localized functions: 35.07 MiB
      Mixer: 14.54 MiB
    Hamiltonian: 92.51 MiB
      Arrays: 42.05 MiB
      XC: 0.00 MiB
      Poisson: 48.10 MiB
      vbar: 2.35 MiB
    Wavefunctions: 118.96 MiB
      Arrays psit_nG: 50.88 MiB
      Eigensolver: 63.03 MiB
      Projections: 0.01 MiB
      Projectors: 5.04 MiB

Total number of cores used: 1

Number of atoms: 3
Number of atomic orbitals: 21
Number of bands in calculation: 21
Bands to converge: occupied states only
Number of valence electrons: 21

... initialized

Initializing position-dependent things.

Density initialized from atomic densities
Creating initial wave functions:
  21 bands from LCAO basis set

      .--------------------.  
     /|                    |  
    / |                    |  
   /  |                    |  
  /   |                    |  
 *    |                    |  
 |    |                    |  
 |    |     Hf   C         |  
 |    |    N               |  
 |    |                    |  
 |    .--------------------.  
 |   /                    /   
 |  /                    /    
 | /                    /     
 |/                    /      
 *--------------------*       

Positions:
   0 Hf     3.385050    4.916250    4.250000    ( 0.0000,  0.0000,  0.0000)
   1 N      3.385050    3.083750    4.250000    ( 0.0000,  0.0000,  0.0000)
   2 C      5.114950    4.796250    4.250000    ( 0.0000,  0.0000,  0.0000)

Unit cell:
           periodic     x           y           z      points  spacing
  1. axis:    no     8.500000    0.000000    0.000000    72     0.1181
  2. axis:    no     0.000000    8.000000    0.000000    64     0.1250
  3. axis:    no     0.000000    0.000000    8.500000    72     0.1181

  Lengths:   8.500000   8.000000   8.500000
  Angles:   90.000000  90.000000  90.000000

Effective grid spacing dv^(1/3) = 0.1203

                     log10-error:    total        iterations:
           time      wfs    density  energy       fermi  poisson
iter:   1  18:53:03  +2.42   +inf   -18.188401    0      15     
iter:   2  18:53:05  +1.20   +inf   -18.812746    0             
iter:   3  18:53:08  +0.62   +inf   -19.012113    0             
iter:   4  18:53:19  +0.62  -0.72   -15.590609    0      11     
iter:   5  18:53:28  +0.81  -0.83   -14.995597    0      9      
iter:   6  18:53:38  +0.51  -0.97   -14.198184    0      10     
iter:   7  18:53:47  +0.27  -1.22   -14.091538    0      9      
iter:   8  18:53:56  +0.47  -1.49   -14.099498    0      8      
iter:   9  18:54:05  -0.12  -1.84   -14.118829    0      7      
iter:  10  18:54:12  +0.06  -2.04   -14.124958    0      5      
iter:  11  18:54:20  -0.63  -2.24   -14.128318    0      5      
iter:  12  18:54:27  -0.55  -2.37   -14.129881    0      5      
iter:  13  18:54:34  -1.19  -2.70   -14.131337    0      4      
iter:  14  18:54:41  -0.92  -2.68   -14.132460    0      5      
iter:  15  18:54:48  -1.68  -3.13   -14.132839    0      4      
iter:  16  18:54:55  -1.31  -3.26   -14.133106    0      3      
iter:  17  18:55:02  -2.08  -3.19   -14.133666    0      3      
iter:  18  18:55:09  -1.71  -3.27   -14.133787    0      3      
iter:  19  18:55:16  -2.42  -3.29   -14.134152    0      4      
iter:  20  18:55:23  -2.28  -3.45   -14.133593    0      4      
iter:  21  18:55:30  -2.55  -3.55   -14.134031    0      3      
iter:  22  18:55:36  -2.67  -3.88   -14.133900    0      2      
iter:  23  18:55:43  -2.84  -3.84   -14.134018    0      3      
iter:  24  18:55:49  -2.98  -4.39   -14.134089    0      1      
iter:  25  18:55:55  -3.15  -4.34   -14.133823    0      1      
iter:  26  18:56:01  -3.27  -4.12   -14.134001    0      2      
iter:  27  18:56:06  -3.44  -4.14   -14.134159    0      1      
iter:  28  18:56:13  -3.56  -4.11   -14.133743    0      2      
iter:  29  18:56:20  -3.65  -3.82   -14.134041    0      3      
iter:  30  18:56:26  -3.91  -4.20   -14.134064    0      2      
iter:  31  18:56:33  -4.02  -4.36   -14.134216    0      2      
iter:  32  18:56:38  -4.22  -4.58   -14.133965    0      1      
iter:  33  18:56:44  -4.33  -4.79   -14.133852    0      1      
iter:  34  18:56:50  -4.56  -5.01   -14.133894    0      1      
iter:  35  18:56:56  -4.61  -5.09   -14.134007    0      1      
iter:  36  18:57:01  -4.85  -5.17   -14.133987    0      1      
iter:  37  18:57:07  -4.91  -5.34   -14.134008    0      1      
iter:  38  18:57:13  -5.14  -5.56   -14.133955    0      1      
iter:  39  18:57:19  -5.19  -5.52   -14.133958    0      1      
iter:  40  18:57:25  -5.42  -5.46   -14.133916    0      1      
iter:  41  18:57:30  -5.46  -5.14   -14.133963    0      1      
iter:  42  18:57:36  -5.70  -5.29   -14.133979    0      1      
iter:  43  18:57:42  -5.75  -5.49   -14.134004    0      1      
iter:  44  18:57:48  -5.99  -5.75   -14.133935    0      1      
iter:  45  18:57:53  -6.04  -5.61   -14.133962    0      1      
iter:  46  18:57:59  -6.28  -5.90   -14.133953    0      1      
iter:  47  18:58:05  -6.34  -6.00   -14.133971    0      1      
iter:  48  18:58:11  -6.57  -6.06   -14.133932    0      1      
iter:  49  18:58:16  -6.62  -6.31   -14.133938    0      1      
iter:  50  18:58:23  -6.86  -6.29   -14.133942    0      1      
iter:  51  18:58:28  -6.90  -6.47   -14.133942    0      1      
iter:  52  18:58:34  -7.13  -6.48   -14.133944    0      1      
iter:  53  18:58:40  -7.18  -6.94   -14.133938    0      1      
iter:  54  18:58:46  -7.40  -6.66   -14.133938    0      1      

Converged after 54 iterations.

Dipole moment: (-0.883059, 1.266073, 0.000000) |e|*Ang

Energy contributions relative to reference atoms: (reference = -412395.464894)

Kinetic:        +28.657022
Potential:      -23.249577
External:        +0.000000
XC:             -19.410147
Entropy (-ST):   +0.000000
Local:           -0.131235
--------------------------
Free energy:    -14.133938
Extrapolated:   -14.133938

Fermi level: -4.84478

 Band  Eigenvalues  Occupancy
    0    -64.92560    2.00000
    1    -34.47537    2.00000
    2    -34.15234    2.00000
    3    -34.04846    2.00000
    4    -15.82936    2.00000
    5    -12.16641    2.00000
    6     -6.70380    2.00000
    7     -5.61288    2.00000
    8     -5.39606    2.00000
    9     -5.09548    2.00000
   10     -4.84478    1.00000
   11     -3.31224    0.00000
   12     -2.96088    0.00000
   13     -1.19925    0.00000
   14     -0.43725    0.00000
   15      0.61873    0.00000
   16      0.95358    0.00000
   17      1.61796    0.00000
   18      2.49616    0.00000
   19      2.59942    0.00000
   20      3.19582    0.00000

Writing to 3_57799_Pm_PBE_yz0_1199.gpw (mode='all')

Timing:                              incl.     excl.
-----------------------------------------------------------
Hamiltonian:                         9.540     0.000   0.0% |
 Atomic:                             0.205     0.001   0.0% |
  XC Correction:                     0.203     0.203   0.1% |
 Calculate atomic Hamiltonians:      0.009     0.009   0.0% |
 Communicate:                        0.000     0.000   0.0% |
 Hartree integrate/restrict:         0.040     0.040   0.0% |
 Initialize Hamiltonian:             0.000     0.000   0.0% |
 Poisson:                            6.991     6.991   2.0% ||
 XC 3D grid:                         2.283     2.283   0.6% |
 vbar:                               0.012     0.012   0.0% |
LCAO initialization:                 0.857     0.599   0.2% |
 LCAO eigensolver:                   0.079     0.000   0.0% |
  Calculate projections:             0.000     0.000   0.0% |
  DenseAtomicCorrection:             0.000     0.000   0.0% |
  Distribute overlap matrix:         0.000     0.000   0.0% |
  Orbital Layouts:                   0.000     0.000   0.0% |
  Potential matrix:                  0.079     0.079   0.0% |
 LCAO to grid:                       0.175     0.175   0.0% |
 Set positions (LCAO WFS):           0.004     0.000   0.0% |
  Basic WFS set positions:           0.000     0.000   0.0% |
  Basis functions set positions:     0.000     0.000   0.0% |
  TCI: Calculate S, T, P:            0.003     0.003   0.0% |
SCF-cycle:                         346.508     0.022   0.0% |
 Davidson:                         143.120    23.320   6.5% |--|
  Apply hamiltonian:                 9.772     9.772   2.7% ||
  Subspace diag:                    41.475     0.006   0.0% |
   calc_h_matrix:                   20.675    11.062   3.1% ||
    Apply hamiltonian:               9.614     9.614   2.7% ||
   diagonalize:                      0.013     0.013   0.0% |
   rotate_psi:                      20.781    20.781   5.8% |-|
  calc. matrices:                   47.464    37.694  10.5% |---|
   Apply hamiltonian:                9.770     9.770   2.7% ||
  diagonalize:                       0.044     0.044   0.0% |
  rotate_psi:                       21.046    21.046   5.9% |-|
 Density:                            4.830     0.001   0.0% |
  Atomic density matrices:           0.037     0.037   0.0% |
  Mix:                               3.348     3.348   0.9% |
  Multipole moments:                 0.010     0.010   0.0% |
  Pseudo density:                    1.434     1.433   0.4% |
   Symmetrize density:               0.001     0.001   0.0% |
 Hamiltonian:                      198.282     0.006   0.0% |
  Atomic:                           10.523     0.048   0.0% |
   XC Correction:                   10.475    10.475   2.9% ||
  Calculate atomic Hamiltonians:     0.469     0.469   0.1% |
  Communicate:                       0.000     0.000   0.0% |
  Hartree integrate/restrict:        2.101     2.101   0.6% |
  Poisson:                          66.997    66.997  18.7% |------|
  XC 3D grid:                      117.724   117.724  32.9% |------------|
  vbar:                              0.462     0.462   0.1% |
 Orthonormalize:                     0.254     0.000   0.0% |
  calc_s_matrix:                     0.090     0.090   0.0% |
  inverse-cholesky:                  0.000     0.000   0.0% |
  projections:                       0.029     0.029   0.0% |
  rotate_psi_s:                      0.134     0.134   0.0% |
Set symmetry:                        0.001     0.001   0.0% |
Other:                               1.173     1.173   0.3% |
-----------------------------------------------------------
Total:                                       358.078 100.0%

Memory usage: 616.77 MiB
Date: Mon Aug 20 18:58:46 2018
