
  ___ ___ ___ _ _ _  
 |   |   |_  | | | | 
 | | | | | . | | | | 
 |__ |  _|___|_____|  1.4.0
 |___|_|             

User:   ???@3fe09ff0504a
Date:   Mon Aug 20 16:05:21 2018
Arch:   x86_64
Pid:    566
Python: 3.7.0
gpaw:   /app/gpaw/software/venv/lib/python3.7/site-packages/gpaw
_gpaw:  /app/gpaw/software/venv/lib/python3.7/site-packages/
        _gpaw.cpython-37m-x86_64-linux-gnu.so
ase:    /app/gpaw/software/venv/lib/python3.7/site-packages/ase (version 3.16.2)
numpy:  /app/gpaw/software/venv/lib/python3.7/site-packages/numpy (version 1.15.0)
scipy:  /app/gpaw/software/venv/lib/python3.7/site-packages/scipy (version 1.1.0)
units:  Angstrom and eV
cores:  1

Input parameters:
  gpts: [56 48 40]
  maxiter: 150
  mixer: {backend: pulay,
          beta: None,
          method: separate,
          nmaxold: None,
          weight: None}
  xc: PBE

System changes: positions, numbers, cell, pbc, initial_charges, initial_magmoms 

Initialize ...

Hf-setup:
  name: Hafnium
  id: d03a45b6fa1dd7f07e443d1513edf499
  Z: 72
  valence: 12
  core: 60
  charge: 0.0
  file: /app/gpaw/datasets/Hf.PBE
  cutoffs: 1.30(comp), 2.36(filt), 4.02(core), lmax=2
  valence states:
                energy  radius
    5s(2.00)   -66.831   1.397
    6s(2.00)    -5.097   1.397
    5p(6.00)   -35.599   1.307
    6p(0.00)    -1.401   1.307
    5d(2.00)    -2.699   1.334
    *d          24.513   1.334

  Using partial waves for Hf as LCAO basis

N-setup:
  name: Nitrogen
  id: 45c8c9c739e7b131496b9fd2deb94bff
  Z: 7
  valence: 5
  core: 2
  charge: 0.0
  file: /app/gpaw/datasets/N.PBE
  cutoffs: 0.58(comp), 1.11(filt), 0.96(core), lmax=2
  valence states:
                energy  radius
    2s(2.00)   -18.583   0.603
    2p(3.00)    -7.089   0.529
    *s           8.629   0.603
    *p          20.123   0.529
    *d           0.000   0.577

  Using partial waves for N as LCAO basis

C-setup:
  name: Carbon
  id: 2f012631b351e3618121587a96c50fca
  Z: 6
  valence: 4
  core: 2
  charge: 0.0
  file: /app/gpaw/datasets/C.PBE
  cutoffs: 0.64(comp), 1.14(filt), 1.14(core), lmax=2
  valence states:
                energy  radius
    2s(2.00)   -13.751   0.635
    2p(2.00)    -5.285   0.635
    *s          13.461   0.635
    *p          21.927   0.635
    *d           0.000   0.635

  Using partial waves for C as LCAO basis

Reference energy: -412395.464894

Spin-paired calculation

Occupation numbers:
  Fermi-Dirac: width=0.0000 eV

Convergence criteria:
  Maximum total energy change: 0.0005 eV / electron
  Maximum integral of absolute density change: 0.0001 electrons
  Maximum integral of absolute eigenstate change: 4e-08 eV^2
  Maximum number of iterations: 150

Symmetries present (total): 1

  ( 1  0  0)
  ( 0  1  0)
  ( 0  0  1)

1 k-point (Gamma)
1 k-point in the irreducible part of the Brillouin zone
       k-points in crystal coordinates                weights
   0:     0.00000000    0.00000000    0.00000000          1/1

Wave functions: Uniform real-space grid
  Kinetic energy operator: 6*3+1=19 point O(h^6) finite-difference Laplacian
  ScaLapack parameters: grid=1x1, blocksize=None 

Eigensolver
   Davidson(niter=1, smin=None, normalize=True) 

Densities:
  Coarse grid: 56*48*40 grid
  Fine grid: 112*96*80 grid
  Total Charge: 0.000000 

Density mixing:
  Method: separate
  Backend: pulay
  Linear mixing parameter: 0.25
  Mixing with 3 old densities
  No damping of long wave oscillations 

Hamiltonian:
  XC and Coulomb potentials evaluated on a 112*96*80 grid
  Using the PBE Exchange-Correlation functional
  Interpolation: tri-quintic (5. degree polynomial)
  Poisson solver: Jacobi solver with 5 multi-grid levels
    Coarsest grid: 7 x 6 x 5 points
    Stencil: 6*3+1=19 point O(h^6) finite-difference Laplacian
    Max iterations: 1000
    Tolerance: 2.000000e-10 

Memory estimate:
  Process memory now: 240.45 MiB
  Calculator: 111.12 MiB
    Density: 42.40 MiB
      Arrays: 20.61 MiB
      Localized functions: 17.17 MiB
      Mixer: 4.61 MiB
    Hamiltonian: 30.06 MiB
      Arrays: 13.48 MiB
      XC: 0.00 MiB
      Poisson: 15.43 MiB
      vbar: 1.15 MiB
    Wavefunctions: 38.66 MiB
      Arrays psit_nG: 16.15 MiB
      Eigensolver: 20.03 MiB
      Projections: 0.01 MiB
      Projectors: 2.47 MiB

Total number of cores used: 1

Number of atoms: 3
Number of atomic orbitals: 21
Number of bands in calculation: 21
Bands to converge: occupied states only
Number of valence electrons: 21

... initialized

Initializing position-dependent things.

Density initialized from atomic densities
Creating initial wave functions:
  21 bands from LCAO basis set

      .--------------------.  
     /|                    |  
    / |                    |  
   /  |                    |  
  /   |                    |  
 *    |                    |  
 |    |     C   NHf        |  
 |    .--------------------.  
 |   /                    /   
 |  /                    /    
 | /                    /     
 |/                    /      
 *--------------------*       

Positions:
   0 Hf     5.075000    4.475000    3.000000    ( 0.0000,  0.0000,  0.0000)
   1 N      5.075000    3.025000    3.000000    ( 0.0000,  0.0000,  0.0000)
   2 C      3.425000    4.475000    3.000000    ( 0.0000,  0.0000,  0.0000)

Unit cell:
           periodic     x           y           z      points  spacing
  1. axis:    no     8.500000    0.000000    0.000000    56     0.1518
  2. axis:    no     0.000000    7.500000    0.000000    48     0.1562
  3. axis:    no     0.000000    0.000000    6.000000    40     0.1500

  Lengths:   8.500000   7.500000   6.000000
  Angles:   90.000000  90.000000  90.000000

Effective grid spacing dv^(1/3) = 0.1527

                     log10-error:    total        iterations:
           time      wfs    density  energy       fermi  poisson
iter:   1  16:05:27  +2.59   +inf   -13.174543    0      15     
iter:   2  16:05:27  +1.23   +inf   -14.102202    0             
iter:   3  16:05:28  +0.60   +inf   -14.325839    0             
iter:   4  16:05:31  +0.49  -0.70    -9.857347    0      9      
iter:   5  16:05:33  +0.46  -0.91    -8.978942    0      8      
iter:   6  16:05:36  +0.37  -1.09    -8.556984    0      8      
iter:   7  16:05:39  +0.25  -1.38    -8.587432    0      7      
iter:   8  16:05:41  +0.08  -1.59    -8.613195    0      7      
iter:   9  16:05:44  -0.38  -1.93    -8.620400    0      6      
iter:  10  16:05:46  -0.60  -2.22    -8.622433    0      5      
iter:  11  16:05:48  -1.05  -2.37    -8.622693    0      5      
iter:  12  16:05:51  -1.32  -2.57    -8.622638    0      5      
iter:  13  16:05:53  -1.80  -2.78    -8.622868    0      5      
iter:  14  16:05:55  -1.90  -2.95    -8.623005    0      4      
iter:  15  16:05:57  -2.41  -3.01    -8.623047    0      5      
iter:  16  16:05:59  -2.53  -3.45    -8.623056    0      3      
iter:  17  16:06:01  -2.96  -3.54    -8.623087    0      4      
iter:  18  16:06:03  -3.06  -4.12    -8.623168    0      2      
iter:  19  16:06:05  -3.44  -4.17    -8.623155    0      2      
iter:  20  16:06:07  -3.55  -4.14    -8.623057    0      2      
iter:  21  16:06:09  -3.87  -3.94    -8.623151    0      3      
iter:  22  16:06:11  -4.04  -4.15    -8.623150    0      3      
iter:  23  16:06:13  -4.40  -4.50    -8.623180    0      2      
iter:  24  16:06:15  -4.54  -4.89    -8.623144    0      1      
iter:  25  16:06:17  -4.84  -4.97    -8.623138    0      2      
iter:  26  16:06:18  -5.00  -5.27    -8.623103    0      1      
iter:  27  16:06:20  -5.28  -5.44    -8.623114    0      1      
iter:  28  16:06:22  -5.44  -5.66    -8.623125    0      1      
iter:  29  16:06:24  -5.72  -5.67    -8.623131    0      1      
iter:  30  16:06:25  -5.87  -5.56    -8.623125    0      1      
iter:  31  16:06:27  -6.13  -5.33    -8.623135    0      1      
iter:  32  16:06:29  -6.29  -5.40    -8.623141    0      1      
iter:  33  16:06:31  -6.56  -5.54    -8.623160    0      1      
iter:  34  16:06:32  -6.72  -6.00    -8.623141    0      1      
iter:  35  16:06:34  -7.02  -6.14    -8.623135    0      1      
iter:  36  16:06:36  -7.15  -6.27    -8.623131    0      1      
iter:  37  16:06:38  -7.44  -6.55    -8.623130    0      1      

Converged after 37 iterations.

Dipole moment: (0.829155, 0.761900, -0.000000) |e|*Ang

Energy contributions relative to reference atoms: (reference = -412395.464894)

Kinetic:       +100.102973
Potential:      -79.204753
External:        +0.000000
XC:             -30.082340
Entropy (-ST):   +0.000000
Local:           +0.560991
--------------------------
Free energy:     -8.623130
Extrapolated:    -8.623130

Fermi level: -4.01249

 Band  Eigenvalues  Occupancy
    0    -63.91617    2.00000
    1    -35.15800    2.00000
    2    -33.69032    2.00000
    3    -32.87303    2.00000
    4    -14.88446    2.00000
    5    -11.68143    2.00000
    6     -8.29006    2.00000
    7     -7.17428    2.00000
    8     -5.59586    2.00000
    9     -5.16702    2.00000
   10     -4.01249    1.00000
   11     -2.87875    0.00000
   12     -1.89857    0.00000
   13      0.18426    0.00000
   14      0.80566    0.00000
   15      2.76125    0.00000
   16      2.76775    0.00000
   17      2.85832    0.00000
   18      4.32754    0.00000
   19      4.79784    0.00000
   20      5.35259    0.00000

Writing to 3_38249_Pm_PBE_yy1_6500.gpw (mode='all')

Timing:                              incl.     excl.
-----------------------------------------------------------
Hamiltonian:                         2.960     0.000   0.0% |
 Atomic:                             0.198     0.001   0.0% |
  XC Correction:                     0.197     0.197   0.3% |
 Calculate atomic Hamiltonians:      0.005     0.005   0.0% |
 Communicate:                        0.000     0.000   0.0% |
 Hartree integrate/restrict:         0.011     0.011   0.0% |
 Initialize Hamiltonian:             0.000     0.000   0.0% |
 Poisson:                            2.041     2.041   2.7% ||
 XC 3D grid:                         0.702     0.702   0.9% |
 vbar:                               0.003     0.003   0.0% |
LCAO initialization:                 0.680     0.573   0.8% |
 LCAO eigensolver:                   0.034     0.000   0.0% |
  Calculate projections:             0.000     0.000   0.0% |
  DenseAtomicCorrection:             0.000     0.000   0.0% |
  Distribute overlap matrix:         0.000     0.000   0.0% |
  Orbital Layouts:                   0.000     0.000   0.0% |
  Potential matrix:                  0.034     0.034   0.0% |
 LCAO to grid:                       0.070     0.070   0.1% |
 Set positions (LCAO WFS):           0.004     0.000   0.0% |
  Basic WFS set positions:           0.000     0.000   0.0% |
  Basis functions set positions:     0.000     0.000   0.0% |
  TCI: Calculate S, T, P:            0.003     0.003   0.0% |
SCF-cycle:                          71.640     0.015   0.0% |
 Davidson:                          24.348     4.779   6.3% |--|
  Apply hamiltonian:                 1.892     1.892   2.5% ||
  Subspace diag:                     6.778     0.004   0.0% |
   calc_h_matrix:                    3.324     1.437   1.9% ||
    Apply hamiltonian:               1.887     1.887   2.5% ||
   diagonalize:                      0.009     0.009   0.0% |
   rotate_psi:                       3.442     3.442   4.5% |-|
  calc. matrices:                    7.449     5.556   7.3% |--|
   Apply hamiltonian:                1.894     1.894   2.5% ||
  diagonalize:                       0.029     0.029   0.0% |
  rotate_psi:                        3.420     3.420   4.5% |-|
 Density:                            0.915     0.001   0.0% |
  Atomic density matrices:           0.024     0.024   0.0% |
  Mix:                               0.640     0.640   0.8% |
  Multipole moments:                 0.006     0.006   0.0% |
  Pseudo density:                    0.245     0.245   0.3% |
   Symmetrize density:               0.001     0.001   0.0% |
 Hamiltonian:                       46.297     0.004   0.0% |
  Atomic:                            6.703     0.029   0.0% |
   XC Correction:                    6.673     6.673   8.8% |---|
  Calculate atomic Hamiltonians:     0.158     0.158   0.2% |
  Communicate:                       0.000     0.000   0.0% |
  Hartree integrate/restrict:        0.371     0.371   0.5% |
  Poisson:                          15.055    15.055  19.8% |-------|
  XC 3D grid:                       23.938    23.938  31.4% |------------|
  vbar:                              0.068     0.068   0.1% |
 Orthonormalize:                     0.065     0.000   0.0% |
  calc_s_matrix:                     0.022     0.022   0.0% |
  inverse-cholesky:                  0.000     0.000   0.0% |
  projections:                       0.015     0.015   0.0% |
  rotate_psi_s:                      0.028     0.028   0.0% |
Set symmetry:                        0.001     0.001   0.0% |
Other:                               0.930     0.930   1.2% |
-----------------------------------------------------------
Total:                                        76.212 100.0%

Memory usage: 242.54 MiB
Date: Mon Aug 20 16:06:38 2018
