
  ___ ___ ___ _ _ _  
 |   |   |_  | | | | 
 | | | | | . | | | | 
 |__ |  _|___|_____|  1.4.0
 |___|_|             

User:   ???@3fe09ff0504a
Date:   Mon Aug 20 16:13:01 2018
Arch:   x86_64
Pid:    566
Python: 3.7.0
gpaw:   /app/gpaw/software/venv/lib/python3.7/site-packages/gpaw
_gpaw:  /app/gpaw/software/venv/lib/python3.7/site-packages/
        _gpaw.cpython-37m-x86_64-linux-gnu.so
ase:    /app/gpaw/software/venv/lib/python3.7/site-packages/ase (version 3.16.2)
numpy:  /app/gpaw/software/venv/lib/python3.7/site-packages/numpy (version 1.15.0)
scipy:  /app/gpaw/software/venv/lib/python3.7/site-packages/scipy (version 1.1.0)
units:  Angstrom and eV
cores:  1

Input parameters:
  gpts: [56 48 40]
  maxiter: 150
  mixer: {backend: pulay,
          beta: None,
          method: separate,
          nmaxold: None,
          weight: None}
  xc: PBE

System changes: positions, numbers, cell, pbc, initial_charges, initial_magmoms 

Initialize ...

Hf-setup:
  name: Hafnium
  id: d03a45b6fa1dd7f07e443d1513edf499
  Z: 72
  valence: 12
  core: 60
  charge: 0.0
  file: /app/gpaw/datasets/Hf.PBE
  cutoffs: 1.30(comp), 2.36(filt), 4.02(core), lmax=2
  valence states:
                energy  radius
    5s(2.00)   -66.831   1.397
    6s(2.00)    -5.097   1.397
    5p(6.00)   -35.599   1.307
    6p(0.00)    -1.401   1.307
    5d(2.00)    -2.699   1.334
    *d          24.513   1.334

  Using partial waves for Hf as LCAO basis

N-setup:
  name: Nitrogen
  id: 45c8c9c739e7b131496b9fd2deb94bff
  Z: 7
  valence: 5
  core: 2
  charge: 0.0
  file: /app/gpaw/datasets/N.PBE
  cutoffs: 0.58(comp), 1.11(filt), 0.96(core), lmax=2
  valence states:
                energy  radius
    2s(2.00)   -18.583   0.603
    2p(3.00)    -7.089   0.529
    *s           8.629   0.603
    *p          20.123   0.529
    *d           0.000   0.577

  Using partial waves for N as LCAO basis

C-setup:
  name: Carbon
  id: 2f012631b351e3618121587a96c50fca
  Z: 6
  valence: 4
  core: 2
  charge: 0.0
  file: /app/gpaw/datasets/C.PBE
  cutoffs: 0.64(comp), 1.14(filt), 1.14(core), lmax=2
  valence states:
                energy  radius
    2s(2.00)   -13.751   0.635
    2p(2.00)    -5.285   0.635
    *s          13.461   0.635
    *p          21.927   0.635
    *d           0.000   0.635

  Using partial waves for C as LCAO basis

Reference energy: -412395.464894

Spin-paired calculation

Occupation numbers:
  Fermi-Dirac: width=0.0000 eV

Convergence criteria:
  Maximum total energy change: 0.0005 eV / electron
  Maximum integral of absolute density change: 0.0001 electrons
  Maximum integral of absolute eigenstate change: 4e-08 eV^2
  Maximum number of iterations: 150

Symmetries present (total): 1

  ( 1  0  0)
  ( 0  1  0)
  ( 0  0  1)

1 k-point (Gamma)
1 k-point in the irreducible part of the Brillouin zone
       k-points in crystal coordinates                weights
   0:     0.00000000    0.00000000    0.00000000          1/1

Wave functions: Uniform real-space grid
  Kinetic energy operator: 6*3+1=19 point O(h^6) finite-difference Laplacian
  ScaLapack parameters: grid=1x1, blocksize=None 

Eigensolver
   Davidson(niter=1, smin=None, normalize=True) 

Densities:
  Coarse grid: 56*48*40 grid
  Fine grid: 112*96*80 grid
  Total Charge: 0.000000 

Density mixing:
  Method: separate
  Backend: pulay
  Linear mixing parameter: 0.25
  Mixing with 3 old densities
  No damping of long wave oscillations 

Hamiltonian:
  XC and Coulomb potentials evaluated on a 112*96*80 grid
  Using the PBE Exchange-Correlation functional
  Interpolation: tri-quintic (5. degree polynomial)
  Poisson solver: Jacobi solver with 5 multi-grid levels
    Coarsest grid: 7 x 6 x 5 points
    Stencil: 6*3+1=19 point O(h^6) finite-difference Laplacian
    Max iterations: 1000
    Tolerance: 2.000000e-10 

Memory estimate:
  Process memory now: 253.83 MiB
  Calculator: 111.12 MiB
    Density: 42.40 MiB
      Arrays: 20.61 MiB
      Localized functions: 17.17 MiB
      Mixer: 4.61 MiB
    Hamiltonian: 30.06 MiB
      Arrays: 13.48 MiB
      XC: 0.00 MiB
      Poisson: 15.43 MiB
      vbar: 1.15 MiB
    Wavefunctions: 38.66 MiB
      Arrays psit_nG: 16.15 MiB
      Eigensolver: 20.03 MiB
      Projections: 0.01 MiB
      Projectors: 2.47 MiB

Total number of cores used: 1

Number of atoms: 3
Number of atomic orbitals: 21
Number of bands in calculation: 21
Bands to converge: occupied states only
Number of valence electrons: 21

... initialized

Initializing position-dependent things.

Density initialized from atomic densities
Creating initial wave functions:
  21 bands from LCAO basis set

      .--------------------.  
     /|                    |  
    / |                    |  
   /  |                    |  
  /   |                    |  
 *    |                    |  
 |    |     C   NHf        |  
 |    .--------------------.  
 |   /                    /   
 |  /                    /    
 | /                    /     
 |/                    /      
 *--------------------*       

Positions:
   0 Hf     5.225000    4.475000    3.000000    ( 0.0000,  0.0000,  0.0000)
   1 N      5.225000    3.025000    3.000000    ( 0.0000,  0.0000,  0.0000)
   2 C      3.275000    4.475000    3.000000    ( 0.0000,  0.0000,  0.0000)

Unit cell:
           periodic     x           y           z      points  spacing
  1. axis:    no     8.500000    0.000000    0.000000    56     0.1518
  2. axis:    no     0.000000    7.500000    0.000000    48     0.1562
  3. axis:    no     0.000000    0.000000    6.000000    40     0.1500

  Lengths:   8.500000   7.500000   6.000000
  Angles:   90.000000  90.000000  90.000000

Effective grid spacing dv^(1/3) = 0.1527

                     log10-error:    total        iterations:
           time      wfs    density  energy       fermi  poisson
iter:   1  16:13:06  +2.59   +inf   -15.403799    0      15     
iter:   2  16:13:07  +1.14   +inf   -16.158293    0             
iter:   3  16:13:08  +0.52   +inf   -16.348470    0             
iter:   4  16:13:10  +0.49  -0.66   -11.271663    0      9      
iter:   5  16:13:13  +0.52  -0.92   -10.615059    0      8      
iter:   6  16:13:16  +0.23  -1.05   -10.210910    0      8      
iter:   7  16:13:18  +0.15  -1.23   -10.229972    0      8      
iter:   8  16:13:21  +0.34  -1.20   -10.172416    0      7      
iter:   9  16:13:23  -0.67  -1.45   -10.180747    0      7      
iter:  10  16:13:26  -0.49  -1.69   -10.178409    0      6      
iter:  11  16:13:28  -1.06  -1.78   -10.209922    0      7      
iter:  12  16:13:31  -1.32  -1.27   -10.178861    0      6      
iter:  13  16:13:33  -1.91  -1.86   -10.177523    0      5      
iter:  14  16:13:35  -2.10  -1.94   -10.177593    0      5      
iter:  15  16:13:38  -2.08  -2.00   -10.217380    0      6      
iter:  16  16:13:40  -1.75  -1.25   -10.176499    0      6      
iter:  17  16:13:42  -2.35  -2.06   -10.177570    0      4      
iter:  18  16:13:45  -2.88  -1.29   -10.177565    0      4      
iter:  19  16:13:47  -2.69  -2.04   -10.177140    0      4      
iter:  20  16:13:49  -3.85  -2.06   -10.177066    0      4      
iter:  21  16:13:51  -2.56  -2.06   -10.224342    0      7      
iter:  22  16:13:54  -2.28  -1.24   -10.179108    0      7      
iter:  23  16:13:56  -2.57  -1.28   -10.177697    0      3      
iter:  24  16:13:59  -1.05  -1.29   -10.339585    0      9      
iter:  25  16:14:01  -0.93  -1.24   -10.239740    0      8      
iter:  26  16:14:04  -1.35  -1.49   -10.188230    0      8      
iter:  27  16:14:07  -1.00  -1.83   -10.242662    0      7      
iter:  28  16:14:09  -1.12  -1.24   -10.184802    0      7      
iter:  29  16:14:11  -2.26  -1.90   -10.183120    0      5      
iter:  30  16:14:14  -2.26  -1.92   -10.183102    0      4      
iter:  31  16:14:16  -2.32  -1.93   -10.261646    0      7      
iter:  32  16:14:19  -1.97  -1.23   -10.179122    0      7      
iter:  33  16:14:21  -2.12  -2.01   -10.179318    0      3      
iter:  34  16:14:23  -2.92  -2.01   -10.177182    0      5      
iter:  35  16:14:25  -2.50  -2.05   -10.264018    0      7      
iter:  36  16:14:28  -2.10  -1.22   -10.177125    0      7      
iter:  37  16:14:30  -2.25  -1.87   -10.182467    0      5      
iter:  38  16:14:33  -2.77  -1.28   -10.192511    0      6      
iter:  39  16:14:35  -2.38  -1.54   -10.180396    0      5      
iter:  40  16:14:37  -2.39  -1.64   -10.242221    0      6      
iter:  41  16:14:40  -2.15  -1.32   -10.230895    0      5      
iter:  42  16:14:42  -1.88  -1.33   -10.235779    0      7      
iter:  43  16:14:45  -1.85  -1.48   -10.260241    0      6      
iter:  44  16:14:47  -1.65  -1.45   -10.343509    0      7      
iter:  45  16:14:50  -0.95  -1.36   -10.304870    0      8      
iter:  46  16:14:52  -0.67  -1.34   -10.197991    0      7      
iter:  47  16:14:55  -1.70  -1.77   -10.205115    0      5      
iter:  48  16:14:57  -1.95  -1.71   -10.229745    0      6      
iter:  49  16:15:00  -1.51  -1.61   -10.305202    0      8      
iter:  50  16:15:02  -1.10  -1.20   -10.192065    0      8      
iter:  51  16:15:05  -1.49  -1.83   -10.182722    0      6      
iter:  52  16:15:07  -2.95  -1.95   -10.181593    0      4      
iter:  53  16:15:10  -2.29  -1.97   -10.284367    0      7      
iter:  54  16:15:12  -1.79  -1.21   -10.177813    0      7      
iter:  55  16:15:14  -2.02  -2.06   -10.176853    0      4      
iter:  56  16:15:16  -2.95  -2.08   -10.180306    0      4      
iter:  57  16:15:19  -3.01  -1.28   -10.177711    0      5      
iter:  58  16:15:21  -2.94  -2.06   -10.177077    0      4      
iter:  59  16:15:23  -3.85  -2.04   -10.177787    0      4      
iter:  60  16:15:25  -2.86  -2.05   -10.223942    0      6      
iter:  61  16:15:28  -2.29  -1.25   -10.177405    0      6      
iter:  62  16:15:30  -2.38  -2.07   -10.176954    0      4      
iter:  63  16:15:32  -3.45  -1.30   -10.179238    0      4      
iter:  64  16:15:34  -3.28  -1.28   -10.177103    0      4      
iter:  65  16:15:36  -3.70  -2.08   -10.177066    0      3      
iter:  66  16:15:38  -3.54  -2.07   -10.177141    0      3      
iter:  67  16:15:41  -3.18  -2.05   -10.211396    0      5      
iter:  68  16:15:43  -2.77  -1.26   -10.178339    0      5      
iter:  69  16:15:45  -2.70  -1.28   -10.179654    0      5      
iter:  70  16:15:48  -2.70  -1.93   -10.191095    0      6      
iter:  71  16:15:50  -2.46  -1.32   -10.178146    0      5      
iter:  72  16:15:52  -3.31  -2.05   -10.177876    0      3      
iter:  73  16:15:54  -3.43  -2.06   -10.180622    0      4      
iter:  74  16:15:56  -2.84  -1.42   -10.183571    0      5      
iter:  75  16:15:59  -2.91  -1.36   -10.177511    0      5      
iter:  76  16:16:01  -3.76  -2.06   -10.177282    0      3      
iter:  77  16:16:03  -3.14  -2.07   -10.220317    0      6      
iter:  78  16:16:05  -2.79  -1.26   -10.185002    0      5      
iter:  79  16:16:08  -2.79  -1.28   -10.177622    0      5      
iter:  80  16:16:10  -2.91  -2.06   -10.183403    0      5      
iter:  81  16:16:12  -3.47  -1.28   -10.177434    0      5      
iter:  82  16:16:14  -3.32  -2.07   -10.177190    0      3      
iter:  83  16:16:16  -4.35  -2.07   -10.177091    0      3      
iter:  84  16:16:19  -3.34  -2.07   -10.212045    0      6      
iter:  85  16:16:21  -3.03  -1.26   -10.178683    0      6      
iter:  86  16:16:23  -2.99  -1.28   -10.180737    0      5      
iter:  87  16:16:26  -2.54  -1.97   -10.180072    0      5      
iter:  88  16:16:28  -3.61  -1.81   -10.179423    0      4      
iter:  89  16:16:30  -3.15  -2.02   -10.186797    0      5      
iter:  90  16:16:32  -2.51  -1.87   -10.190459    0      6      
iter:  91  16:16:35  -2.41  -1.29   -10.178551    0      5      
iter:  92  16:16:37  -2.96  -1.49   -10.184849    0      5      
iter:  93  16:16:39  -2.51  -1.89   -10.180624    0      5      
iter:  94  16:16:41  -2.64  -1.93   -10.179804    0      5      
iter:  95  16:16:44  -3.01  -1.77   -10.193999    0      5      
iter:  96  16:16:46  -2.44  -1.30   -10.181301    0      5      
iter:  97  16:16:48  -2.33  -1.97   -10.178769    0      4      
iter:  98  16:16:50  -3.45  -2.03   -10.180007    0      4      
iter:  99  16:16:53  -3.24  -1.72   -10.191416    0      5      
iter: 100  16:16:55  -2.92  -1.29   -10.178715    0      5      
iter: 101  16:16:57  -3.02  -2.03   -10.177638    0      4      
iter: 102  16:16:59  -3.60  -2.05   -10.178497    0      4      
iter: 103  16:17:01  -3.10  -1.69   -10.191632    0      5      
iter: 104  16:17:04  -2.89  -1.29   -10.177522    0      5      
iter: 105  16:17:06  -3.39  -2.05   -10.176985    0      4      
iter: 106  16:17:08  -3.88  -1.98   -10.177075    0      3      
iter: 107  16:17:10  -3.56  -1.67   -10.178333    0      4      
iter: 108  16:17:12  -2.84  -1.98   -10.179952    0      5      
iter: 109  16:17:15  -2.41  -1.93   -10.190602    0      5      
iter: 110  16:17:17  -2.67  -1.29   -10.186609    0      5      
iter: 111  16:17:19  -2.91  -1.50   -10.177787    0      5      
iter: 112  16:17:21  -2.79  -1.76   -10.184675    0      5      
iter: 113  16:17:24  -2.40  -1.62   -10.179236    0      5      
iter: 114  16:17:26  -3.44  -1.68   -10.178659    0      4      
iter: 115  16:17:28  -2.92  -1.81   -10.216120    0      6      
iter: 116  16:17:31  -2.55  -1.28   -10.178391    0      6      
iter: 117  16:17:33  -2.63  -1.48   -10.178486    0      5      
iter: 118  16:17:35  -2.91  -1.85   -10.178397    0      3      
iter: 119  16:17:37  -3.03  -1.92   -10.177782    0      4      
iter: 120  16:17:40  -3.34  -1.99   -10.200385    0      6      
iter: 121  16:17:42  -2.92  -1.28   -10.178021    0      5      
iter: 122  16:17:44  -3.10  -1.46   -10.177227    0      4      
iter: 123  16:17:46  -3.36  -2.06   -10.177719    0      4      
iter: 124  16:17:48  -3.92  -1.36   -10.177209    0      4      
iter: 125  16:17:50  -3.80  -2.05   -10.176955    0      3      
iter: 126  16:17:52  -4.58  -2.06   -10.178925    0      4      
iter: 127  16:17:55  -4.23  -1.29   -10.178186    0      5      
iter: 128  16:17:57  -3.82  -2.04   -10.179491    0      4      
iter: 129  16:17:59  -3.51  -2.01   -10.178813    0      4      
iter: 130  16:18:01  -3.14  -2.03   -10.207940    0      6      
iter: 131  16:18:04  -2.87  -1.27   -10.177781    0      6      
iter: 132  16:18:06  -3.09  -2.06   -10.176851    0      4      
iter: 133  16:18:08  -3.81  -1.95   -10.177063    0      3      
iter: 134  16:18:10  -3.40  -2.01   -10.182814    0      5      
iter: 135  16:18:13  -2.62  -1.90   -10.187359    0      5      
iter: 136  16:18:15  -2.20  -1.57   -10.180388    0      6      
iter: 137  16:18:17  -2.36  -1.31   -10.181674    0      5      
iter: 138  16:18:20  -2.40  -1.75   -10.183652    0      5      
iter: 139  16:18:22  -2.11  -1.92   -10.178954    0      5      
iter: 140  16:18:24  -3.03  -1.99   -10.190241    0      5      
iter: 141  16:18:26  -2.81  -1.28   -10.182138    0      5      
iter: 142  16:18:29  -3.16  -1.62   -10.178859    0      5      
iter: 143  16:18:31  -3.28  -2.02   -10.177810    0      4      
iter: 144  16:18:33  -3.45  -2.05   -10.190849    0      5      
iter: 145  16:18:35  -3.15  -1.29   -10.177842    0      5      
iter: 146  16:18:38  -3.14  -1.85   -10.177550    0      4      
iter: 147  16:18:40  -3.98  -2.04   -10.177040    0      4      
iter: 148  16:18:42  -3.74  -2.00   -10.179811    0      5      
iter: 149  16:18:44  -3.23  -1.33   -10.176956    0      5      
iter: 150  16:18:46  -3.30  -2.07   -10.176837    0      3      

Did not converge!

Here are some tips:

1) Make sure the geometry and spin-state is physically sound.
2) Use less aggressive density mixing.
3) Solve the eigenvalue problem more accurately at each scf-step.
4) Use a smoother distribution function for the occupation numbers.
5) Try adding more empty states.
6) Use enough k-points.
7) Don't let your structure optimization algorithm take too large steps.
8) Solve the Poisson equation more accurately.
9) Better initial guess for the wave functions.

See details here:

    https://wiki.fysik.dtu.dk/gpaw/documentation/convergence.html


Timing:                              incl.     excl.
-----------------------------------------------------------
Hamiltonian:                         2.957     0.000   0.0% |
 Atomic:                             0.197     0.001   0.0% |
  XC Correction:                     0.196     0.196   0.1% |
 Calculate atomic Hamiltonians:      0.005     0.005   0.0% |
 Communicate:                        0.000     0.000   0.0% |
 Hartree integrate/restrict:         0.011     0.011   0.0% |
 Initialize Hamiltonian:             0.000     0.000   0.0% |
 Poisson:                            2.040     2.040   0.6% |
 XC 3D grid:                         0.701     0.701   0.2% |
 vbar:                               0.003     0.003   0.0% |
LCAO initialization:                 0.682     0.577   0.2% |
 LCAO eigensolver:                   0.033     0.000   0.0% |
  Calculate projections:             0.000     0.000   0.0% |
  DenseAtomicCorrection:             0.000     0.000   0.0% |
  Distribute overlap matrix:         0.000     0.000   0.0% |
  Orbital Layouts:                   0.000     0.000   0.0% |
  Potential matrix:                  0.032     0.032   0.0% |
 LCAO to grid:                       0.069     0.069   0.0% |
 Set positions (LCAO WFS):           0.004     0.000   0.0% |
  Basic WFS set positions:           0.000     0.000   0.0% |
  Basis functions set positions:     0.000     0.000   0.0% |
  TCI: Calculate S, T, P:            0.003     0.003   0.0% |
SCF-cycle:                         342.356     0.054   0.0% |
 Davidson:                          98.454    19.088   5.5% |-|
  Apply hamiltonian:                 7.670     7.670   2.2% ||
  Subspace diag:                    27.582     0.015   0.0% |
   calc_h_matrix:                   13.553     5.885   1.7% ||
    Apply hamiltonian:               7.668     7.668   2.2% ||
   diagonalize:                      0.034     0.034   0.0% |
   rotate_psi:                      13.981    13.981   4.0% |-|
  calc. matrices:                   30.120    22.441   6.5% |--|
   Apply hamiltonian:                7.678     7.678   2.2% ||
  diagonalize:                       0.122     0.122   0.0% |
  rotate_psi:                       13.872    13.872   4.0% |-|
 Density:                            4.003     0.003   0.0% |
  Atomic density matrices:           0.103     0.103   0.0% |
  Mix:                               2.801     2.801   0.8% |
  Multipole moments:                 0.026     0.026   0.0% |
  Pseudo density:                    1.069     1.067   0.3% |
   Symmetrize density:               0.003     0.003   0.0% |
 Hamiltonian:                      239.781     0.016   0.0% |
  Atomic:                           29.196     0.128   0.0% |
   XC Correction:                   29.067    29.067   8.4% |--|
  Calculate atomic Hamiltonians:     0.684     0.684   0.2% |
  Communicate:                       0.001     0.001   0.0% |
  Hartree integrate/restrict:        1.626     1.626   0.5% |
  Poisson:                         103.927   103.927  30.0% |-----------|
  XC 3D grid:                      104.038   104.038  30.0% |-----------|
  vbar:                              0.293     0.293   0.1% |
 Orthonormalize:                     0.065     0.000   0.0% |
  calc_s_matrix:                     0.022     0.022   0.0% |
  inverse-cholesky:                  0.000     0.000   0.0% |
  projections:                       0.015     0.015   0.0% |
  rotate_psi_s:                      0.028     0.028   0.0% |
Set symmetry:                        0.001     0.001   0.0% |
Other:                               0.922     0.922   0.3% |
-----------------------------------------------------------
Total:                                       346.919 100.0%

Memory usage: 260.56 MiB
Date: Mon Aug 20 16:18:48 2018
