
  ___ ___ ___ _ _ _  
 |   |   |_  | | | | 
 | | | | | . | | | | 
 |__ |  _|___|_____|  1.4.0
 |___|_|             

User:   ???@3fe09ff0504a
Date:   Mon Aug 20 15:47:56 2018
Arch:   x86_64
Pid:    495
Python: 3.7.0
gpaw:   /app/gpaw/software/venv/lib/python3.7/site-packages/gpaw
_gpaw:  /app/gpaw/software/venv/lib/python3.7/site-packages/
        _gpaw.cpython-37m-x86_64-linux-gnu.so
ase:    /app/gpaw/software/venv/lib/python3.7/site-packages/ase (version 3.16.2)
numpy:  /app/gpaw/software/venv/lib/python3.7/site-packages/numpy (version 1.15.0)
scipy:  /app/gpaw/software/venv/lib/python3.7/site-packages/scipy (version 1.1.0)
units:  Angstrom and eV
cores:  1

Input parameters:
  gpts: [56 48 40]
  maxiter: 150
  mixer: {backend: pulay,
          beta: None,
          method: separate,
          nmaxold: None,
          weight: None}
  xc: PBE

System changes: positions, numbers, cell, pbc, initial_charges, initial_magmoms 

Initialize ...

Hf-setup:
  name: Hafnium
  id: d03a45b6fa1dd7f07e443d1513edf499
  Z: 72
  valence: 12
  core: 60
  charge: 0.0
  file: /app/gpaw/datasets/Hf.PBE
  cutoffs: 1.30(comp), 2.36(filt), 4.02(core), lmax=2
  valence states:
                energy  radius
    5s(2.00)   -66.831   1.397
    6s(2.00)    -5.097   1.397
    5p(6.00)   -35.599   1.307
    6p(0.00)    -1.401   1.307
    5d(2.00)    -2.699   1.334
    *d          24.513   1.334

  Using partial waves for Hf as LCAO basis

N-setup:
  name: Nitrogen
  id: 45c8c9c739e7b131496b9fd2deb94bff
  Z: 7
  valence: 5
  core: 2
  charge: 0.0
  file: /app/gpaw/datasets/N.PBE
  cutoffs: 0.58(comp), 1.11(filt), 0.96(core), lmax=2
  valence states:
                energy  radius
    2s(2.00)   -18.583   0.603
    2p(3.00)    -7.089   0.529
    *s           8.629   0.603
    *p          20.123   0.529
    *d           0.000   0.577

  Using partial waves for N as LCAO basis

C-setup:
  name: Carbon
  id: 2f012631b351e3618121587a96c50fca
  Z: 6
  valence: 4
  core: 2
  charge: 0.0
  file: /app/gpaw/datasets/C.PBE
  cutoffs: 0.64(comp), 1.14(filt), 1.14(core), lmax=2
  valence states:
                energy  radius
    2s(2.00)   -13.751   0.635
    2p(2.00)    -5.285   0.635
    *s          13.461   0.635
    *p          21.927   0.635
    *d           0.000   0.635

  Using partial waves for C as LCAO basis

Reference energy: -412395.464894

Spin-paired calculation

Occupation numbers:
  Fermi-Dirac: width=0.0000 eV

Convergence criteria:
  Maximum total energy change: 0.0005 eV / electron
  Maximum integral of absolute density change: 0.0001 electrons
  Maximum integral of absolute eigenstate change: 4e-08 eV^2
  Maximum number of iterations: 150

Symmetries present (total): 1

  ( 1  0  0)
  ( 0  1  0)
  ( 0  0  1)

1 k-point (Gamma)
1 k-point in the irreducible part of the Brillouin zone
       k-points in crystal coordinates                weights
   0:     0.00000000    0.00000000    0.00000000          1/1

Wave functions: Uniform real-space grid
  Kinetic energy operator: 6*3+1=19 point O(h^6) finite-difference Laplacian
  ScaLapack parameters: grid=1x1, blocksize=None 

Eigensolver
   Davidson(niter=1, smin=None, normalize=True) 

Densities:
  Coarse grid: 56*48*40 grid
  Fine grid: 112*96*80 grid
  Total Charge: 0.000000 

Density mixing:
  Method: separate
  Backend: pulay
  Linear mixing parameter: 0.25
  Mixing with 3 old densities
  No damping of long wave oscillations 

Hamiltonian:
  XC and Coulomb potentials evaluated on a 112*96*80 grid
  Using the PBE Exchange-Correlation functional
  Interpolation: tri-quintic (5. degree polynomial)
  Poisson solver: Jacobi solver with 5 multi-grid levels
    Coarsest grid: 7 x 6 x 5 points
    Stencil: 6*3+1=19 point O(h^6) finite-difference Laplacian
    Max iterations: 1000
    Tolerance: 2.000000e-10 

Memory estimate:
  Process memory now: 230.03 MiB
  Calculator: 111.12 MiB
    Density: 42.40 MiB
      Arrays: 20.61 MiB
      Localized functions: 17.17 MiB
      Mixer: 4.61 MiB
    Hamiltonian: 30.06 MiB
      Arrays: 13.48 MiB
      XC: 0.00 MiB
      Poisson: 15.43 MiB
      vbar: 1.15 MiB
    Wavefunctions: 38.66 MiB
      Arrays psit_nG: 16.15 MiB
      Eigensolver: 20.03 MiB
      Projections: 0.01 MiB
      Projectors: 2.47 MiB

Total number of cores used: 1

Number of atoms: 3
Number of atomic orbitals: 21
Number of bands in calculation: 21
Bands to converge: occupied states only
Number of valence electrons: 21

... initialized

Initializing position-dependent things.

Density initialized from atomic densities
Creating initial wave functions:
  21 bands from LCAO basis set

      .--------------------.  
     /|                    |  
    / |                    |  
   /  |                    |  
  /   |                    |  
 *    |      Hf  C         |  
 |    |                    |  
 |    .----N---------------.  
 |   /                    /   
 |  /                    /    
 | /                    /     
 |/                    /      
 *--------------------*       

Positions:
   0 Hf     3.400000    4.681250    3.000000    ( 0.0000,  0.0000,  0.0000)
   1 N      3.400000    2.818750    3.000000    ( 0.0000,  0.0000,  0.0000)
   2 C      5.100000    4.681250    3.000000    ( 0.0000,  0.0000,  0.0000)

Unit cell:
           periodic     x           y           z      points  spacing
  1. axis:    no     8.500000    0.000000    0.000000    56     0.1518
  2. axis:    no     0.000000    7.500000    0.000000    48     0.1562
  3. axis:    no     0.000000    0.000000    6.000000    40     0.1500

  Lengths:   8.500000   7.500000   6.000000
  Angles:   90.000000  90.000000  90.000000

Effective grid spacing dv^(1/3) = 0.1527

                     log10-error:    total        iterations:
           time      wfs    density  energy       fermi  poisson
iter:   1  15:48:01  +2.61   +inf   -17.775075    0      15     
iter:   2  15:48:02  +0.98   +inf   -18.309192    0             
iter:   3  15:48:02  +0.39   +inf   -18.449600    0             
iter:   4  15:48:05  +0.35  -0.72   -14.919330    0      9      
iter:   5  15:48:08  +0.39  -0.86   -14.496357    0      8      
iter:   6  15:48:11  +0.34  -0.96   -13.677178    0      8      
iter:   7  15:48:13  +0.11  -1.24   -13.620000    0      8      
iter:   8  15:48:16  +0.14  -1.45   -13.626606    0      7      
iter:   9  15:48:18  -0.41  -1.72   -13.635277    0      7      
iter:  10  15:48:21  -0.36  -2.04   -13.637592    0      5      
iter:  11  15:48:23  -1.06  -2.29   -13.638767    0      5      
iter:  12  15:48:25  -1.20  -2.48   -13.639261    0      5      
iter:  13  15:48:27  -1.73  -2.77   -13.639649    0      4      
iter:  14  15:48:30  -1.82  -2.82   -13.639846    0      5      
iter:  15  15:48:32  -2.33  -3.19   -13.639876    0      4      
iter:  16  15:48:34  -2.47  -3.47   -13.639835    0      3      
iter:  17  15:48:36  -2.96  -3.65   -13.639916    0      3      
iter:  18  15:48:38  -2.98  -3.72   -13.640022    0      3      
iter:  19  15:48:40  -3.47  -3.80   -13.639994    0      3      
iter:  20  15:48:42  -3.64  -4.20   -13.640012    0      2      
iter:  21  15:48:44  -3.95  -4.33   -13.639996    0      2      
iter:  22  15:48:45  -4.18  -4.59   -13.640093    0      1      
iter:  23  15:48:47  -4.43  -4.68   -13.640025    0      2      
iter:  24  15:48:49  -4.71  -4.92   -13.640132    0      1      
iter:  25  15:48:51  -4.91  -5.22   -13.640040    0      1      
iter:  26  15:48:53  -5.20  -5.26   -13.640049    0      1      
iter:  27  15:48:54  -5.39  -5.35   -13.640018    0      1      
iter:  28  15:48:56  -5.67  -5.46   -13.640027    0      1      
iter:  29  15:48:58  -5.88  -5.66   -13.640010    0      1      
iter:  30  15:48:59  -6.13  -5.81   -13.640008    0      1      
iter:  31  15:49:01  -6.34  -6.04   -13.640003    0      1      
iter:  32  15:49:03  -6.57  -6.15   -13.640004    0      1      
iter:  33  15:49:05  -6.79  -6.29   -13.640003    0      1      
iter:  34  15:49:06  -7.01  -6.34   -13.640003    0      1      
iter:  35  15:49:08  -7.23  -6.33   -13.640000    0      1      
iter:  36  15:49:10  -7.44  -6.22   -13.639989    0      1      

Converged after 36 iterations.

Dipole moment: (-0.902889, 1.304372, 0.000000) |e|*Ang

Energy contributions relative to reference atoms: (reference = -412395.464894)

Kinetic:        +30.949307
Potential:      -24.542703
External:        +0.000000
XC:             -20.016887
Entropy (-ST):   +0.000000
Local:           -0.029706
--------------------------
Free energy:    -13.639989
Extrapolated:   -13.639989

Fermi level: -4.62383

 Band  Eigenvalues  Occupancy
    0    -64.72179    2.00000
    1    -34.33937    2.00000
    2    -33.94746    2.00000
    3    -33.80778    2.00000
    4    -15.65899    2.00000
    5    -11.90938    2.00000
    6     -6.47459    2.00000
    7     -5.33627    2.00000
    8     -5.22867    2.00000
    9     -5.01887    2.00000
   10     -4.62383    1.00000
   11     -3.35620    0.00000
   12     -2.42762    0.00000
   13     -0.59261    0.00000
   14     -0.06559    0.00000
   15      0.99246    0.00000
   16      1.40181    0.00000
   17      2.25270    0.00000
   18      3.82095    0.00000
   19      4.00719    0.00000
   20      4.45410    0.00000

Writing to 3_38249_Pm_PBE_xx1_8625.gpw (mode='all')

Timing:                              incl.     excl.
-----------------------------------------------------------
Hamiltonian:                         2.953     0.000   0.0% |
 Atomic:                             0.196     0.001   0.0% |
  XC Correction:                     0.196     0.196   0.3% |
 Calculate atomic Hamiltonians:      0.005     0.005   0.0% |
 Communicate:                        0.000     0.000   0.0% |
 Hartree integrate/restrict:         0.011     0.011   0.0% |
 Initialize Hamiltonian:             0.000     0.000   0.0% |
 Poisson:                            2.034     2.034   2.7% ||
 XC 3D grid:                         0.703     0.703   0.9% |
 vbar:                               0.003     0.003   0.0% |
LCAO initialization:                 0.685     0.579   0.8% |
 LCAO eigensolver:                   0.033     0.000   0.0% |
  Calculate projections:             0.000     0.000   0.0% |
  DenseAtomicCorrection:             0.000     0.000   0.0% |
  Distribute overlap matrix:         0.000     0.000   0.0% |
  Orbital Layouts:                   0.000     0.000   0.0% |
  Potential matrix:                  0.032     0.032   0.0% |
 LCAO to grid:                       0.070     0.070   0.1% |
 Set positions (LCAO WFS):           0.004     0.000   0.0% |
  Basic WFS set positions:           0.000     0.000   0.0% |
  Basis functions set positions:     0.000     0.000   0.0% |
  TCI: Calculate S, T, P:            0.003     0.003   0.0% |
SCF-cycle:                          69.717     0.015   0.0% |
 Davidson:                          23.724     4.584   6.2% |-|
  Apply hamiltonian:                 1.838     1.838   2.5% ||
  Subspace diag:                     6.638     0.004   0.0% |
   calc_h_matrix:                    3.260     1.422   1.9% ||
    Apply hamiltonian:               1.838     1.838   2.5% ||
   diagonalize:                      0.008     0.008   0.0% |
   rotate_psi:                       3.365     3.365   4.5% |-|
  calc. matrices:                    7.267     5.428   7.3% |--|
   Apply hamiltonian:                1.839     1.839   2.5% ||
  diagonalize:                       0.028     0.028   0.0% |
  rotate_psi:                        3.368     3.368   4.5% |-|
 Density:                            0.896     0.001   0.0% |
  Atomic density matrices:           0.023     0.023   0.0% |
  Mix:                               0.627     0.627   0.8% |
  Multipole moments:                 0.006     0.006   0.0% |
  Pseudo density:                    0.240     0.239   0.3% |
   Symmetrize density:               0.001     0.001   0.0% |
 Hamiltonian:                       45.016     0.004   0.0% |
  Atomic:                            6.500     0.029   0.0% |
   XC Correction:                    6.472     6.472   8.7% |--|
  Calculate atomic Hamiltonians:     0.153     0.153   0.2% |
  Communicate:                       0.000     0.000   0.0% |
  Hartree integrate/restrict:        0.363     0.363   0.5% |
  Poisson:                          14.638    14.638  19.7% |-------|
  XC 3D grid:                       23.292    23.292  31.4% |------------|
  vbar:                              0.066     0.066   0.1% |
 Orthonormalize:                     0.065     0.000   0.0% |
  calc_s_matrix:                     0.022     0.022   0.0% |
  inverse-cholesky:                  0.000     0.000   0.0% |
  projections:                       0.015     0.015   0.0% |
  rotate_psi_s:                      0.029     0.029   0.0% |
Set symmetry:                        0.001     0.001   0.0% |
Other:                               0.936     0.936   1.3% ||
-----------------------------------------------------------
Total:                                        74.292 100.0%

Memory usage: 236.57 MiB
Date: Mon Aug 20 15:49:10 2018
