
  ___ ___ ___ _ _ _  
 |   |   |_  | | | | 
 | | | | | . | | | | 
 |__ |  _|___|_____|  1.4.0
 |___|_|             

User:   ???@3fe09ff0504a
Date:   Mon Aug 20 16:07:55 2018
Arch:   x86_64
Pid:    566
Python: 3.7.0
gpaw:   /app/gpaw/software/venv/lib/python3.7/site-packages/gpaw
_gpaw:  /app/gpaw/software/venv/lib/python3.7/site-packages/
        _gpaw.cpython-37m-x86_64-linux-gnu.so
ase:    /app/gpaw/software/venv/lib/python3.7/site-packages/ase (version 3.16.2)
numpy:  /app/gpaw/software/venv/lib/python3.7/site-packages/numpy (version 1.15.0)
scipy:  /app/gpaw/software/venv/lib/python3.7/site-packages/scipy (version 1.1.0)
units:  Angstrom and eV
cores:  1

Input parameters:
  gpts: [56 48 40]
  maxiter: 150
  mixer: {backend: pulay,
          beta: None,
          method: separate,
          nmaxold: None,
          weight: None}
  xc: PBE

System changes: positions, numbers, cell, pbc, initial_charges, initial_magmoms 

Initialize ...

Hf-setup:
  name: Hafnium
  id: d03a45b6fa1dd7f07e443d1513edf499
  Z: 72
  valence: 12
  core: 60
  charge: 0.0
  file: /app/gpaw/datasets/Hf.PBE
  cutoffs: 1.30(comp), 2.36(filt), 4.02(core), lmax=2
  valence states:
                energy  radius
    5s(2.00)   -66.831   1.397
    6s(2.00)    -5.097   1.397
    5p(6.00)   -35.599   1.307
    6p(0.00)    -1.401   1.307
    5d(2.00)    -2.699   1.334
    *d          24.513   1.334

  Using partial waves for Hf as LCAO basis

N-setup:
  name: Nitrogen
  id: 45c8c9c739e7b131496b9fd2deb94bff
  Z: 7
  valence: 5
  core: 2
  charge: 0.0
  file: /app/gpaw/datasets/N.PBE
  cutoffs: 0.58(comp), 1.11(filt), 0.96(core), lmax=2
  valence states:
                energy  radius
    2s(2.00)   -18.583   0.603
    2p(3.00)    -7.089   0.529
    *s           8.629   0.603
    *p          20.123   0.529
    *d           0.000   0.577

  Using partial waves for N as LCAO basis

C-setup:
  name: Carbon
  id: 2f012631b351e3618121587a96c50fca
  Z: 6
  valence: 4
  core: 2
  charge: 0.0
  file: /app/gpaw/datasets/C.PBE
  cutoffs: 0.64(comp), 1.14(filt), 1.14(core), lmax=2
  valence states:
                energy  radius
    2s(2.00)   -13.751   0.635
    2p(2.00)    -5.285   0.635
    *s          13.461   0.635
    *p          21.927   0.635
    *d           0.000   0.635

  Using partial waves for C as LCAO basis

Reference energy: -412395.464894

Spin-paired calculation

Occupation numbers:
  Fermi-Dirac: width=0.0000 eV

Convergence criteria:
  Maximum total energy change: 0.0005 eV / electron
  Maximum integral of absolute density change: 0.0001 electrons
  Maximum integral of absolute eigenstate change: 4e-08 eV^2
  Maximum number of iterations: 150

Symmetries present (total): 1

  ( 1  0  0)
  ( 0  1  0)
  ( 0  0  1)

1 k-point (Gamma)
1 k-point in the irreducible part of the Brillouin zone
       k-points in crystal coordinates                weights
   0:     0.00000000    0.00000000    0.00000000          1/1

Wave functions: Uniform real-space grid
  Kinetic energy operator: 6*3+1=19 point O(h^6) finite-difference Laplacian
  ScaLapack parameters: grid=1x1, blocksize=None 

Eigensolver
   Davidson(niter=1, smin=None, normalize=True) 

Densities:
  Coarse grid: 56*48*40 grid
  Fine grid: 112*96*80 grid
  Total Charge: 0.000000 

Density mixing:
  Method: separate
  Backend: pulay
  Linear mixing parameter: 0.25
  Mixing with 3 old densities
  No damping of long wave oscillations 

Hamiltonian:
  XC and Coulomb potentials evaluated on a 112*96*80 grid
  Using the PBE Exchange-Correlation functional
  Interpolation: tri-quintic (5. degree polynomial)
  Poisson solver: Jacobi solver with 5 multi-grid levels
    Coarsest grid: 7 x 6 x 5 points
    Stencil: 6*3+1=19 point O(h^6) finite-difference Laplacian
    Max iterations: 1000
    Tolerance: 2.000000e-10 

Memory estimate:
  Process memory now: 248.52 MiB
  Calculator: 111.12 MiB
    Density: 42.40 MiB
      Arrays: 20.61 MiB
      Localized functions: 17.17 MiB
      Mixer: 4.61 MiB
    Hamiltonian: 30.06 MiB
      Arrays: 13.48 MiB
      XC: 0.00 MiB
      Poisson: 15.43 MiB
      vbar: 1.15 MiB
    Wavefunctions: 38.66 MiB
      Arrays psit_nG: 16.15 MiB
      Eigensolver: 20.03 MiB
      Projections: 0.01 MiB
      Projectors: 2.47 MiB

Total number of cores used: 1

Number of atoms: 3
Number of atomic orbitals: 21
Number of bands in calculation: 21
Bands to converge: occupied states only
Number of valence electrons: 21

... initialized

Initializing position-dependent things.

Density initialized from atomic densities
Creating initial wave functions:
  21 bands from LCAO basis set

      .--------------------.  
     /|                    |  
    / |                    |  
   /  |                    |  
  /   |                    |  
 *    |                    |  
 |    |     C   NHf        |  
 |    .--------------------.  
 |   /                    /   
 |  /                    /    
 | /                    /     
 |/                    /      
 *--------------------*       

Positions:
   0 Hf     5.125000    4.475000    3.000000    ( 0.0000,  0.0000,  0.0000)
   1 N      5.125000    3.025000    3.000000    ( 0.0000,  0.0000,  0.0000)
   2 C      3.375000    4.475000    3.000000    ( 0.0000,  0.0000,  0.0000)

Unit cell:
           periodic     x           y           z      points  spacing
  1. axis:    no     8.500000    0.000000    0.000000    56     0.1518
  2. axis:    no     0.000000    7.500000    0.000000    48     0.1562
  3. axis:    no     0.000000    0.000000    6.000000    40     0.1500

  Lengths:   8.500000   7.500000   6.000000
  Angles:   90.000000  90.000000  90.000000

Effective grid spacing dv^(1/3) = 0.1527

                     log10-error:    total        iterations:
           time      wfs    density  energy       fermi  poisson
iter:   1  16:08:01  +2.58   +inf   -14.305517    0      15     
iter:   2  16:08:01  +1.19   +inf   -15.164243    0             
iter:   3  16:08:02  +0.57   +inf   -15.375174    0             
iter:   4  16:08:05  +0.48  -0.69   -10.786792    0      9      
iter:   5  16:08:08  +0.48  -0.90    -9.997334    0      8      
iter:   6  16:08:10  +0.34  -1.07    -9.506451    0      8      
iter:   7  16:08:13  +0.23  -1.35    -9.523574    0      7      
iter:   8  16:08:15  +0.09  -1.60    -9.548418    0      7      
iter:   9  16:08:18  -0.36  -1.94    -9.552272    0      6      
iter:  10  16:08:20  -0.74  -2.37    -9.555237    0      5      
iter:  11  16:08:22  -1.00  -2.45    -9.556189    0      5      
iter:  12  16:08:25  -1.38  -2.67    -9.556624    0      5      
iter:  13  16:08:27  -1.78  -2.84    -9.556852    0      5      
iter:  14  16:08:29  -1.98  -3.09    -9.556990    0      4      
iter:  15  16:08:31  -2.35  -3.11    -9.557100    0      4      
iter:  16  16:08:33  -2.52  -3.41    -9.557124    0      4      
iter:  17  16:08:35  -2.90  -3.65    -9.557128    0      3      
iter:  18  16:08:37  -3.05  -3.98    -9.557165    0      3      
iter:  19  16:08:39  -3.38  -4.09    -9.557233    0      2      
iter:  20  16:08:41  -3.50  -4.06    -9.557040    0      1      
iter:  21  16:08:43  -3.84  -3.95    -9.557251    0      2      
iter:  22  16:08:45  -4.02  -4.08    -9.557239    0      2      
iter:  23  16:08:47  -4.33  -4.19    -9.557212    0      3      
iter:  24  16:08:49  -4.57  -4.59    -9.557175    0      2      
iter:  25  16:08:51  -4.74  -4.60    -9.557230    0      2      
iter:  26  16:08:52  -5.11  -4.91    -9.557203    0      2      
iter:  27  16:08:54  -5.27  -5.18    -9.557145    0      1      
iter:  28  16:08:56  -5.59  -5.33    -9.557183    0      1      
iter:  29  16:08:58  -5.72  -5.35    -9.557204    0      1      
iter:  30  16:08:59  -6.03  -5.40    -9.557219    0      1      
iter:  31  16:09:01  -6.25  -5.60    -9.557160    0      1      
iter:  32  16:09:03  -6.42  -5.51    -9.557203    0      1      
iter:  33  16:09:05  -6.69  -6.09    -9.557189    0      1      
iter:  34  16:09:06  -6.89  -6.23    -9.557189    0      1      
iter:  35  16:09:08  -7.13  -6.27    -9.557188    0      1      
iter:  36  16:09:10  -7.31  -6.22    -9.557183    0      1      
iter:  37  16:09:12  -7.55  -6.03    -9.557192    0      1      

Converged after 37 iterations.

Dipole moment: (0.907328, 0.799216, -0.000000) |e|*Ang

Energy contributions relative to reference atoms: (reference = -412395.464894)

Kinetic:        +89.030100
Potential:      -70.715814
External:        +0.000000
XC:             -28.376999
Entropy (-ST):   +0.000000
Local:           +0.505521
--------------------------
Free energy:     -9.557192
Extrapolated:    -9.557192

Fermi level: -4.17381

 Band  Eigenvalues  Occupancy
    0    -64.00806    2.00000
    1    -35.20698    2.00000
    2    -33.43550    2.00000
    3    -33.02304    2.00000
    4    -14.81205    2.00000
    5    -11.90560    2.00000
    6     -7.99451    2.00000
    7     -7.13463    2.00000
    8     -5.51512    2.00000
    9     -4.82346    2.00000
   10     -4.17381    1.00000
   11     -2.95351    0.00000
   12     -1.96986    0.00000
   13      0.03693    0.00000
   14      0.51324    0.00000
   15      2.40191    0.00000
   16      2.72414    0.00000
   17      2.81485    0.00000
   18      4.37273    0.00000
   19      4.67549    0.00000
   20      5.15757    0.00000

Writing to 3_38249_Pm_PBE_yy1_7500.gpw (mode='all')

Timing:                              incl.     excl.
-----------------------------------------------------------
Hamiltonian:                         2.952     0.000   0.0% |
 Atomic:                             0.197     0.001   0.0% |
  XC Correction:                     0.196     0.196   0.3% |
 Calculate atomic Hamiltonians:      0.005     0.005   0.0% |
 Communicate:                        0.000     0.000   0.0% |
 Hartree integrate/restrict:         0.011     0.011   0.0% |
 Initialize Hamiltonian:             0.000     0.000   0.0% |
 Poisson:                            2.035     2.035   2.7% ||
 XC 3D grid:                         0.701     0.701   0.9% |
 vbar:                               0.003     0.003   0.0% |
LCAO initialization:                 0.672     0.565   0.7% |
 LCAO eigensolver:                   0.034     0.000   0.0% |
  Calculate projections:             0.000     0.000   0.0% |
  DenseAtomicCorrection:             0.000     0.000   0.0% |
  Distribute overlap matrix:         0.000     0.000   0.0% |
  Orbital Layouts:                   0.000     0.000   0.0% |
  Potential matrix:                  0.034     0.034   0.0% |
 LCAO to grid:                       0.070     0.070   0.1% |
 Set positions (LCAO WFS):           0.004     0.000   0.0% |
  Basic WFS set positions:           0.000     0.000   0.0% |
  Basis functions set positions:     0.000     0.000   0.0% |
  TCI: Calculate S, T, P:            0.003     0.003   0.0% |
SCF-cycle:                          71.591     0.015   0.0% |
 Davidson:                          24.279     4.725   6.2% |-|
  Apply hamiltonian:                 1.890     1.890   2.5% ||
  Subspace diag:                     6.780     0.004   0.0% |
   calc_h_matrix:                    3.322     1.434   1.9% ||
    Apply hamiltonian:               1.888     1.888   2.5% ||
   diagonalize:                      0.009     0.009   0.0% |
   rotate_psi:                       3.446     3.446   4.5% |-|
  calc. matrices:                    7.425     5.533   7.3% |--|
   Apply hamiltonian:                1.892     1.892   2.5% ||
  diagonalize:                       0.029     0.029   0.0% |
  rotate_psi:                        3.430     3.430   4.5% |-|
 Density:                            0.914     0.001   0.0% |
  Atomic density matrices:           0.024     0.024   0.0% |
  Mix:                               0.639     0.639   0.8% |
  Multipole moments:                 0.006     0.006   0.0% |
  Pseudo density:                    0.245     0.245   0.3% |
   Symmetrize density:               0.001     0.001   0.0% |
 Hamiltonian:                       46.317     0.004   0.0% |
  Atomic:                            6.697     0.029   0.0% |
   XC Correction:                    6.668     6.668   8.8% |---|
  Calculate atomic Hamiltonians:     0.158     0.158   0.2% |
  Communicate:                       0.000     0.000   0.0% |
  Hartree integrate/restrict:        0.372     0.372   0.5% |
  Poisson:                          15.066    15.066  19.8% |-------|
  XC 3D grid:                       23.952    23.952  31.5% |------------|
  vbar:                              0.068     0.068   0.1% |
 Orthonormalize:                     0.065     0.000   0.0% |
  calc_s_matrix:                     0.022     0.022   0.0% |
  inverse-cholesky:                  0.000     0.000   0.0% |
  projections:                       0.015     0.015   0.0% |
  rotate_psi_s:                      0.028     0.028   0.0% |
Set symmetry:                        0.001     0.001   0.0% |
Other:                               0.937     0.937   1.2% |
-----------------------------------------------------------
Total:                                        76.153 100.0%

Memory usage: 248.52 MiB
Date: Mon Aug 20 16:09:12 2018
