
  ___ ___ ___ _ _ _  
 |   |   |_  | | | | 
 | | | | | . | | | | 
 |__ |  _|___|_____|  1.4.0
 |___|_|             

User:   ???@3fe09ff0504a
Date:   Mon Aug 20 15:04:49 2018
Arch:   x86_64
Pid:    254
Python: 3.7.0
gpaw:   /app/gpaw/software/venv/lib/python3.7/site-packages/gpaw
_gpaw:  /app/gpaw/software/venv/lib/python3.7/site-packages/
        _gpaw.cpython-37m-x86_64-linux-gnu.so
ase:    /app/gpaw/software/venv/lib/python3.7/site-packages/ase (version 3.16.2)
numpy:  /app/gpaw/software/venv/lib/python3.7/site-packages/numpy (version 1.15.0)
scipy:  /app/gpaw/software/venv/lib/python3.7/site-packages/scipy (version 1.1.0)
units:  Angstrom and eV
cores:  1

Input parameters:
  gpts: [56 48 40]
  maxiter: 150
  mixer: {backend: pulay,
          beta: None,
          method: separate,
          nmaxold: None,
          weight: None}
  xc: PBE

System changes: positions, numbers, cell, pbc, initial_charges, initial_magmoms 

Initialize ...

Hf-setup:
  name: Hafnium
  id: d03a45b6fa1dd7f07e443d1513edf499
  Z: 72
  valence: 12
  core: 60
  charge: 0.0
  file: /app/gpaw/datasets/Hf.PBE
  cutoffs: 1.30(comp), 2.36(filt), 4.02(core), lmax=2
  valence states:
                energy  radius
    5s(2.00)   -66.831   1.397
    6s(2.00)    -5.097   1.397
    5p(6.00)   -35.599   1.307
    6p(0.00)    -1.401   1.307
    5d(2.00)    -2.699   1.334
    *d          24.513   1.334

  Using partial waves for Hf as LCAO basis

N-setup:
  name: Nitrogen
  id: 45c8c9c739e7b131496b9fd2deb94bff
  Z: 7
  valence: 5
  core: 2
  charge: 0.0
  file: /app/gpaw/datasets/N.PBE
  cutoffs: 0.58(comp), 1.11(filt), 0.96(core), lmax=2
  valence states:
                energy  radius
    2s(2.00)   -18.583   0.603
    2p(3.00)    -7.089   0.529
    *s           8.629   0.603
    *p          20.123   0.529
    *d           0.000   0.577

  Using partial waves for N as LCAO basis

C-setup:
  name: Carbon
  id: 2f012631b351e3618121587a96c50fca
  Z: 6
  valence: 4
  core: 2
  charge: 0.0
  file: /app/gpaw/datasets/C.PBE
  cutoffs: 0.64(comp), 1.14(filt), 1.14(core), lmax=2
  valence states:
                energy  radius
    2s(2.00)   -13.751   0.635
    2p(2.00)    -5.285   0.635
    *s          13.461   0.635
    *p          21.927   0.635
    *d           0.000   0.635

  Using partial waves for C as LCAO basis

Reference energy: -412395.464894

Spin-paired calculation

Occupation numbers:
  Fermi-Dirac: width=0.0000 eV

Convergence criteria:
  Maximum total energy change: 0.0005 eV / electron
  Maximum integral of absolute density change: 0.0001 electrons
  Maximum integral of absolute eigenstate change: 4e-08 eV^2
  Maximum number of iterations: 150

Symmetries present (total): 1

  ( 1  0  0)
  ( 0  1  0)
  ( 0  0  1)

1 k-point (Gamma)
1 k-point in the irreducible part of the Brillouin zone
       k-points in crystal coordinates                weights
   0:     0.00000000    0.00000000    0.00000000          1/1

Wave functions: Uniform real-space grid
  Kinetic energy operator: 6*3+1=19 point O(h^6) finite-difference Laplacian
  ScaLapack parameters: grid=1x1, blocksize=None 

Eigensolver
   Davidson(niter=1, smin=None, normalize=True) 

Densities:
  Coarse grid: 56*48*40 grid
  Fine grid: 112*96*80 grid
  Total Charge: 0.000000 

Density mixing:
  Method: separate
  Backend: pulay
  Linear mixing parameter: 0.25
  Mixing with 3 old densities
  No damping of long wave oscillations 

Hamiltonian:
  XC and Coulomb potentials evaluated on a 112*96*80 grid
  Using the PBE Exchange-Correlation functional
  Interpolation: tri-quintic (5. degree polynomial)
  Poisson solver: Jacobi solver with 5 multi-grid levels
    Coarsest grid: 7 x 6 x 5 points
    Stencil: 6*3+1=19 point O(h^6) finite-difference Laplacian
    Max iterations: 1000
    Tolerance: 2.000000e-10 

Memory estimate:
  Process memory now: 240.61 MiB
  Calculator: 111.12 MiB
    Density: 42.40 MiB
      Arrays: 20.61 MiB
      Localized functions: 17.17 MiB
      Mixer: 4.61 MiB
    Hamiltonian: 30.06 MiB
      Arrays: 13.48 MiB
      XC: 0.00 MiB
      Poisson: 15.43 MiB
      vbar: 1.15 MiB
    Wavefunctions: 38.66 MiB
      Arrays psit_nG: 16.15 MiB
      Eigensolver: 20.03 MiB
      Projections: 0.01 MiB
      Projectors: 2.47 MiB

Total number of cores used: 1

Number of atoms: 3
Number of atomic orbitals: 21
Number of bands in calculation: 21
Bands to converge: occupied states only
Number of valence electrons: 21

... initialized

Initializing position-dependent things.

Density initialized from atomic densities
Creating initial wave functions:
  21 bands from LCAO basis set

      .--------------------.  
     /|                    |  
    / |                    |  
   /  |                    |  
  /   |                    |  
 *    |                    |  
 |    |    NHf   C         |  
 |    .--------------------.  
 |   /                    /   
 |  /                    /    
 | /                    /     
 |/                    /      
 *--------------------*       

Positions:
   0 Hf     3.400000    4.450000    3.000000    ( 0.0000,  0.0000,  0.0000)
   1 N      3.400000    3.050000    3.000000    ( 0.0000,  0.0000,  0.0000)
   2 C      5.100000    4.450000    3.000000    ( 0.0000,  0.0000,  0.0000)

Unit cell:
           periodic     x           y           z      points  spacing
  1. axis:    no     8.500000    0.000000    0.000000    56     0.1518
  2. axis:    no     0.000000    7.500000    0.000000    48     0.1562
  3. axis:    no     0.000000    0.000000    6.000000    40     0.1500

  Lengths:   8.500000   7.500000   6.000000
  Angles:   90.000000  90.000000  90.000000

Effective grid spacing dv^(1/3) = 0.1527

                     log10-error:    total        iterations:
           time      wfs    density  energy       fermi  poisson
iter:   1  15:04:55  +2.58   +inf   -11.893824    0      15     
iter:   2  15:04:55  +1.23   +inf   -12.834948    0             
iter:   3  15:04:56  +0.62   +inf   -13.060125    0             
iter:   4  15:04:59  +0.50  -0.69    -8.372060    0      9      
iter:   5  15:05:01  +0.45  -0.92    -7.514762    0      8      
iter:   6  15:05:04  +0.36  -1.10    -7.130177    0      8      
iter:   7  15:05:07  +0.24  -1.38    -7.160034    0      7      
iter:   8  15:05:09  +0.05  -1.59    -7.188105    0      7      
iter:   9  15:05:12  -0.38  -1.92    -7.195988    0      6      
iter:  10  15:05:14  -0.59  -2.18    -7.197606    0      5      
iter:  11  15:05:16  -1.10  -2.34    -7.197492    0      5      
iter:  12  15:05:19  -1.35  -2.56    -7.197435    0      5      
iter:  13  15:05:21  -1.83  -2.74    -7.197568    0      5      
iter:  14  15:05:23  -1.94  -2.93    -7.197680    0      4      
iter:  15  15:05:25  -2.44  -3.01    -7.197730    0      4      
iter:  16  15:05:27  -2.53  -3.33    -7.197715    0      3      
iter:  17  15:05:29  -3.01  -3.47    -7.197749    0      4      
iter:  18  15:05:31  -3.04  -4.06    -7.197830    0      2      
iter:  19  15:05:33  -3.49  -4.17    -7.197821    0      2      
iter:  20  15:05:35  -3.54  -4.18    -7.197893    0      1      
iter:  21  15:05:36  -3.97  -4.14    -7.197717    0      1      
iter:  22  15:05:38  -4.03  -4.06    -7.197855    0      2      
iter:  23  15:05:40  -4.43  -4.10    -7.197870    0      2      
iter:  24  15:05:42  -4.61  -4.20    -7.197900    0      2      
iter:  25  15:05:44  -4.84  -4.39    -7.197761    0      2      
iter:  26  15:05:46  -5.15  -4.54    -7.197823    0      2      
iter:  27  15:05:48  -5.35  -4.83    -7.197742    0      1      
iter:  28  15:05:49  -5.71  -5.06    -7.197756    0      1      
iter:  29  15:05:51  -5.91  -5.38    -7.197781    0      1      
iter:  30  15:05:53  -6.19  -5.56    -7.197792    0      1      
iter:  31  15:05:55  -6.40  -5.76    -7.197792    0      1      
iter:  32  15:05:56  -6.65  -5.78    -7.197793    0      1      
iter:  33  15:05:58  -6.86  -5.85    -7.197793    0      1      
iter:  34  15:06:00  -7.11  -6.38    -7.197788    0      1      
iter:  35  15:06:02  -7.30  -6.25    -7.197790    0      1      
iter:  36  15:06:03  -7.55  -6.10    -7.197788    0      1      

Converged after 36 iterations.

Dipole moment: (-0.879604, 0.691087, 0.000000) |e|*Ang

Energy contributions relative to reference atoms: (reference = -412395.464894)

Kinetic:       +108.391881
Potential:      -85.441745
External:        +0.000000
XC:             -30.833688
Entropy (-ST):   +0.000000
Local:           +0.685765
--------------------------
Free energy:     -7.197788
Extrapolated:    -7.197788

Fermi level: -3.99507

 Band  Eigenvalues  Occupancy
    0    -64.04122    2.00000
    1    -35.69522    2.00000
    2    -33.51726    2.00000
    3    -32.91007    2.00000
    4    -14.63176    2.00000
    5    -11.77345    2.00000
    6     -8.46762    2.00000
    7     -7.54527    2.00000
    8     -5.56179    2.00000
    9     -4.95146    2.00000
   10     -3.99507    1.00000
   11     -2.84626    0.00000
   12     -1.87522    0.00000
   13      0.17091    0.00000
   14      0.71431    0.00000
   15      2.74817    0.00000
   16      2.84933    0.00000
   17      2.95156    0.00000
   18      4.32204    0.00000
   19      4.89798    0.00000
   20      5.40025    0.00000

Writing to 3_38249_Pm_PBE_xx1_4000000000000004.gpw (mode='all')

Timing:                              incl.     excl.
-----------------------------------------------------------
Hamiltonian:                         2.964     0.000   0.0% |
 Atomic:                             0.197     0.001   0.0% |
  XC Correction:                     0.196     0.196   0.3% |
 Calculate atomic Hamiltonians:      0.005     0.005   0.0% |
 Communicate:                        0.000     0.000   0.0% |
 Hartree integrate/restrict:         0.011     0.011   0.0% |
 Initialize Hamiltonian:             0.000     0.000   0.0% |
 Poisson:                            2.044     2.044   2.8% ||
 XC 3D grid:                         0.703     0.703   1.0% |
 vbar:                               0.004     0.004   0.0% |
LCAO initialization:                 0.683     0.575   0.8% |
 LCAO eigensolver:                   0.034     0.000   0.0% |
  Calculate projections:             0.000     0.000   0.0% |
  DenseAtomicCorrection:             0.000     0.000   0.0% |
  Distribute overlap matrix:         0.000     0.000   0.0% |
  Orbital Layouts:                   0.000     0.000   0.0% |
  Potential matrix:                  0.033     0.033   0.0% |
 LCAO to grid:                       0.070     0.070   0.1% |
 Set positions (LCAO WFS):           0.004     0.000   0.0% |
  Basic WFS set positions:           0.000     0.000   0.0% |
  Basis functions set positions:     0.000     0.000   0.0% |
  TCI: Calculate S, T, P:            0.003     0.003   0.0% |
SCF-cycle:                          69.362     0.015   0.0% |
 Davidson:                          23.680     4.594   6.2% |-|
  Apply hamiltonian:                 1.842     1.842   2.5% ||
  Subspace diag:                     6.642     0.004   0.0% |
   calc_h_matrix:                    3.259     1.416   1.9% ||
    Apply hamiltonian:               1.843     1.843   2.5% ||
   diagonalize:                      0.008     0.008   0.0% |
   rotate_psi:                       3.371     3.371   4.6% |-|
  calc. matrices:                    7.224     5.382   7.3% |--|
   Apply hamiltonian:                1.841     1.841   2.5% ||
  diagonalize:                       0.028     0.028   0.0% |
  rotate_psi:                        3.350     3.350   4.5% |-|
 Density:                            0.898     0.001   0.0% |
  Atomic density matrices:           0.023     0.023   0.0% |
  Mix:                               0.631     0.631   0.9% |
  Multipole moments:                 0.006     0.006   0.0% |
  Pseudo density:                    0.238     0.237   0.3% |
   Symmetrize density:               0.001     0.001   0.0% |
 Hamiltonian:                       44.704     0.004   0.0% |
  Atomic:                            6.504     0.030   0.0% |
   XC Correction:                    6.474     6.474   8.8% |---|
  Calculate atomic Hamiltonians:     0.154     0.154   0.2% |
  Communicate:                       0.000     0.000   0.0% |
  Hartree integrate/restrict:        0.364     0.364   0.5% |
  Poisson:                          14.416    14.416  19.5% |-------|
  XC 3D grid:                       23.198    23.198  31.4% |------------|
  vbar:                              0.064     0.064   0.1% |
 Orthonormalize:                     0.065     0.000   0.0% |
  calc_s_matrix:                     0.021     0.021   0.0% |
  inverse-cholesky:                  0.000     0.000   0.0% |
  projections:                       0.015     0.015   0.0% |
  rotate_psi_s:                      0.028     0.028   0.0% |
Set symmetry:                        0.001     0.001   0.0% |
Other:                               0.930     0.930   1.3% ||
-----------------------------------------------------------
Total:                                        73.939 100.0%

Memory usage: 246.69 MiB
Date: Mon Aug 20 15:06:03 2018
