
  ___ ___ ___ _ _ _  
 |   |   |_  | | | | 
 | | | | | . | | | | 
 |__ |  _|___|_____|  1.4.0
 |___|_|             

User:   ???@3fe09ff0504a
Date:   Mon Aug 20 15:12:21 2018
Arch:   x86_64
Pid:    254
Python: 3.7.0
gpaw:   /app/gpaw/software/venv/lib/python3.7/site-packages/gpaw
_gpaw:  /app/gpaw/software/venv/lib/python3.7/site-packages/
        _gpaw.cpython-37m-x86_64-linux-gnu.so
ase:    /app/gpaw/software/venv/lib/python3.7/site-packages/ase (version 3.16.2)
numpy:  /app/gpaw/software/venv/lib/python3.7/site-packages/numpy (version 1.15.0)
scipy:  /app/gpaw/software/venv/lib/python3.7/site-packages/scipy (version 1.1.0)
units:  Angstrom and eV
cores:  1

Input parameters:
  gpts: [56 48 40]
  maxiter: 150
  mixer: {backend: pulay,
          beta: None,
          method: separate,
          nmaxold: None,
          weight: None}
  xc: PBE

System changes: positions, numbers, cell, pbc, initial_charges, initial_magmoms 

Initialize ...

Hf-setup:
  name: Hafnium
  id: d03a45b6fa1dd7f07e443d1513edf499
  Z: 72
  valence: 12
  core: 60
  charge: 0.0
  file: /app/gpaw/datasets/Hf.PBE
  cutoffs: 1.30(comp), 2.36(filt), 4.02(core), lmax=2
  valence states:
                energy  radius
    5s(2.00)   -66.831   1.397
    6s(2.00)    -5.097   1.397
    5p(6.00)   -35.599   1.307
    6p(0.00)    -1.401   1.307
    5d(2.00)    -2.699   1.334
    *d          24.513   1.334

  Using partial waves for Hf as LCAO basis

N-setup:
  name: Nitrogen
  id: 45c8c9c739e7b131496b9fd2deb94bff
  Z: 7
  valence: 5
  core: 2
  charge: 0.0
  file: /app/gpaw/datasets/N.PBE
  cutoffs: 0.58(comp), 1.11(filt), 0.96(core), lmax=2
  valence states:
                energy  radius
    2s(2.00)   -18.583   0.603
    2p(3.00)    -7.089   0.529
    *s           8.629   0.603
    *p          20.123   0.529
    *d           0.000   0.577

  Using partial waves for N as LCAO basis

C-setup:
  name: Carbon
  id: 2f012631b351e3618121587a96c50fca
  Z: 6
  valence: 4
  core: 2
  charge: 0.0
  file: /app/gpaw/datasets/C.PBE
  cutoffs: 0.64(comp), 1.14(filt), 1.14(core), lmax=2
  valence states:
                energy  radius
    2s(2.00)   -13.751   0.635
    2p(2.00)    -5.285   0.635
    *s          13.461   0.635
    *p          21.927   0.635
    *d           0.000   0.635

  Using partial waves for C as LCAO basis

Reference energy: -412395.464894

Spin-paired calculation

Occupation numbers:
  Fermi-Dirac: width=0.0000 eV

Convergence criteria:
  Maximum total energy change: 0.0005 eV / electron
  Maximum integral of absolute density change: 0.0001 electrons
  Maximum integral of absolute eigenstate change: 4e-08 eV^2
  Maximum number of iterations: 150

Symmetries present (total): 1

  ( 1  0  0)
  ( 0  1  0)
  ( 0  0  1)

1 k-point (Gamma)
1 k-point in the irreducible part of the Brillouin zone
       k-points in crystal coordinates                weights
   0:     0.00000000    0.00000000    0.00000000          1/1

Wave functions: Uniform real-space grid
  Kinetic energy operator: 6*3+1=19 point O(h^6) finite-difference Laplacian
  ScaLapack parameters: grid=1x1, blocksize=None 

Eigensolver
   Davidson(niter=1, smin=None, normalize=True) 

Densities:
  Coarse grid: 56*48*40 grid
  Fine grid: 112*96*80 grid
  Total Charge: 0.000000 

Density mixing:
  Method: separate
  Backend: pulay
  Linear mixing parameter: 0.25
  Mixing with 3 old densities
  No damping of long wave oscillations 

Hamiltonian:
  XC and Coulomb potentials evaluated on a 112*96*80 grid
  Using the PBE Exchange-Correlation functional
  Interpolation: tri-quintic (5. degree polynomial)
  Poisson solver: Jacobi solver with 5 multi-grid levels
    Coarsest grid: 7 x 6 x 5 points
    Stencil: 6*3+1=19 point O(h^6) finite-difference Laplacian
    Max iterations: 1000
    Tolerance: 2.000000e-10 

Memory estimate:
  Process memory now: 259.00 MiB
  Calculator: 111.12 MiB
    Density: 42.40 MiB
      Arrays: 20.61 MiB
      Localized functions: 17.17 MiB
      Mixer: 4.61 MiB
    Hamiltonian: 30.06 MiB
      Arrays: 13.48 MiB
      XC: 0.00 MiB
      Poisson: 15.43 MiB
      vbar: 1.15 MiB
    Wavefunctions: 38.66 MiB
      Arrays psit_nG: 16.15 MiB
      Eigensolver: 20.03 MiB
      Projections: 0.01 MiB
      Projectors: 2.47 MiB

Total number of cores used: 1

Number of atoms: 3
Number of atomic orbitals: 21
Number of bands in calculation: 21
Bands to converge: occupied states only
Number of valence electrons: 21

... initialized

Initializing position-dependent things.

Density initialized from atomic densities
Creating initial wave functions:
  21 bands from LCAO basis set

      .--------------------.  
     /|                    |  
    / |                    |  
   /  |                    |  
  /   |                    |  
 *    |     Hf   C         |  
 |    |                    |  
 |    .----N---------------.  
 |   /                    /   
 |  /                    /    
 | /                    /     
 |/                    /      
 *--------------------*       

Positions:
   0 Hf     3.400000    4.600000    3.000000    ( 0.0000,  0.0000,  0.0000)
   1 N      3.400000    2.900000    3.000000    ( 0.0000,  0.0000,  0.0000)
   2 C      5.100000    4.600000    3.000000    ( 0.0000,  0.0000,  0.0000)

Unit cell:
           periodic     x           y           z      points  spacing
  1. axis:    no     8.500000    0.000000    0.000000    56     0.1518
  2. axis:    no     0.000000    7.500000    0.000000    48     0.1562
  3. axis:    no     0.000000    0.000000    6.000000    40     0.1500

  Lengths:   8.500000   7.500000   6.000000
  Angles:   90.000000  90.000000  90.000000

Effective grid spacing dv^(1/3) = 0.1527

                     log10-error:    total        iterations:
           time      wfs    density  energy       fermi  poisson
iter:   1  15:12:26  +2.59   +inf   -17.651831    0      15     
iter:   2  15:12:27  +1.05   +inf   -18.294445    0             
iter:   3  15:12:27  +0.47   +inf   -18.462060    0             
iter:   4  15:12:30  +0.39  -0.71   -14.867480    0      9      
iter:   5  15:12:33  +0.42  -0.84   -14.112957    0      8      
iter:   6  15:12:35  +0.32  -0.99   -13.390123    0      8      
iter:   7  15:12:38  +0.17  -1.27   -13.357244    0      8      
iter:   8  15:12:41  +0.21  -1.54   -13.370500    0      7      
iter:   9  15:12:43  -0.47  -1.84   -13.383640    0      7      
iter:  10  15:12:45  -0.39  -2.09   -13.384976    0      5      
iter:  11  15:12:48  -1.14  -2.35   -13.385447    0      5      
iter:  12  15:12:50  -1.23  -2.53   -13.385734    0      5      
iter:  13  15:12:52  -1.79  -2.84   -13.386045    0      4      
iter:  14  15:12:54  -1.84  -2.88   -13.386241    0      5      
iter:  15  15:12:57  -2.36  -3.19   -13.386281    0      4      
iter:  16  15:12:59  -2.50  -3.57   -13.386272    0      3      
iter:  17  15:13:01  -2.96  -3.71   -13.386337    0      3      
iter:  18  15:13:03  -3.03  -3.81   -13.386414    0      3      
iter:  19  15:13:05  -3.45  -3.90   -13.386408    0      3      
iter:  20  15:13:07  -3.68  -4.13   -13.386365    0      2      
iter:  21  15:13:08  -3.88  -4.30   -13.386425    0      2      
iter:  22  15:13:10  -4.18  -4.60   -13.386415    0      2      
iter:  23  15:13:12  -4.34  -4.87   -13.386498    0      1      
iter:  24  15:13:14  -4.66  -4.92   -13.386406    0      1      
iter:  25  15:13:15  -4.80  -4.77   -13.386404    0      1      
iter:  26  15:13:17  -5.12  -4.68   -13.386436    0      1      
iter:  27  15:13:19  -5.25  -4.68   -13.386403    0      1      
iter:  28  15:13:21  -5.56  -4.59   -13.386233    0      1      
iter:  29  15:13:23  -5.46  -4.46   -13.386446    0      2      
iter:  30  15:13:24  -6.06  -4.77   -13.386444    0      2      
iter:  31  15:13:26  -6.16  -5.17   -13.386355    0      1      
iter:  32  15:13:28  -6.77  -5.29   -13.386334    0      1      
iter:  33  15:13:30  -7.04  -5.41   -13.386346    0      1      
iter:  34  15:13:31  -7.24  -5.56   -13.386390    0      1      
iter:  35  15:13:33  -7.53  -5.88   -13.386383    0      1      

Converged after 35 iterations.

Dipole moment: (-0.878518, 1.140666, -0.000000) |e|*Ang

Energy contributions relative to reference atoms: (reference = -412395.464894)

Kinetic:        +47.462075
Potential:      -38.128281
External:        +0.000000
XC:             -22.803834
Entropy (-ST):   +0.000000
Local:           +0.083656
--------------------------
Free energy:    -13.386383
Extrapolated:   -13.386383

Fermi level: -4.47145

 Band  Eigenvalues  Occupancy
    0    -64.30154    2.00000
    1    -34.00836    2.00000
    2    -33.87780    2.00000
    3    -33.51965    2.00000
    4    -15.56793    2.00000
    5    -11.89088    2.00000
    6     -6.95877    2.00000
    7     -5.76536    2.00000
    8     -5.35322    2.00000
    9     -5.10876    2.00000
   10     -4.47145    1.00000
   11     -3.19546    0.00000
   12     -2.25530    0.00000
   13     -0.29755    0.00000
   14      0.23750    0.00000
   15      1.59411    0.00000
   16      1.84941    0.00000
   17      2.54621    0.00000
   18      4.05513    0.00000
   19      4.37452    0.00000
   20      4.47214    0.00000

Writing to 3_38249_Pm_PBE_xx1_7000000000000006.gpw (mode='all')

Timing:                              incl.     excl.
-----------------------------------------------------------
Hamiltonian:                         2.960     0.000   0.0% |
 Atomic:                             0.197     0.001   0.0% |
  XC Correction:                     0.196     0.196   0.3% |
 Calculate atomic Hamiltonians:      0.005     0.005   0.0% |
 Communicate:                        0.000     0.000   0.0% |
 Hartree integrate/restrict:         0.011     0.011   0.0% |
 Initialize Hamiltonian:             0.000     0.000   0.0% |
 Poisson:                            2.039     2.039   2.8% ||
 XC 3D grid:                         0.704     0.704   1.0% |
 vbar:                               0.004     0.004   0.0% |
LCAO initialization:                 0.678     0.573   0.8% |
 LCAO eigensolver:                   0.033     0.000   0.0% |
  Calculate projections:             0.000     0.000   0.0% |
  DenseAtomicCorrection:             0.000     0.000   0.0% |
  Distribute overlap matrix:         0.000     0.000   0.0% |
  Orbital Layouts:                   0.000     0.000   0.0% |
  Potential matrix:                  0.032     0.032   0.0% |
 LCAO to grid:                       0.069     0.069   0.1% |
 Set positions (LCAO WFS):           0.004     0.000   0.0% |
  Basic WFS set positions:           0.000     0.000   0.0% |
  Basis functions set positions:     0.000     0.000   0.0% |
  TCI: Calculate S, T, P:            0.003     0.003   0.0% |
SCF-cycle:                          67.947     0.015   0.0% |
 Davidson:                          22.944     4.454   6.1% |-|
  Apply hamiltonian:                 1.789     1.789   2.5% ||
  Subspace diag:                     6.426     0.003   0.0% |
   calc_h_matrix:                    3.144     1.358   1.9% ||
    Apply hamiltonian:               1.787     1.787   2.5% ||
   diagonalize:                      0.008     0.008   0.0% |
   rotate_psi:                       3.270     3.270   4.5% |-|
  calc. matrices:                    7.003     5.215   7.2% |--|
   Apply hamiltonian:                1.788     1.788   2.5% ||
  diagonalize:                       0.027     0.027   0.0% |
  rotate_psi:                        3.245     3.245   4.5% |-|
 Density:                            0.866     0.001   0.0% |
  Atomic density matrices:           0.022     0.022   0.0% |
  Mix:                               0.606     0.606   0.8% |
  Multipole moments:                 0.006     0.006   0.0% |
  Pseudo density:                    0.231     0.231   0.3% |
   Symmetrize density:               0.001     0.001   0.0% |
 Hamiltonian:                       44.057     0.003   0.0% |
  Atomic:                            6.313     0.028   0.0% |
   XC Correction:                    6.285     6.285   8.7% |--|
  Calculate atomic Hamiltonians:     0.149     0.149   0.2% |
  Communicate:                       0.000     0.000   0.0% |
  Hartree integrate/restrict:        0.353     0.353   0.5% |
  Poisson:                          14.677    14.677  20.2% |-------|
  XC 3D grid:                       22.499    22.499  31.0% |-----------|
  vbar:                              0.063     0.063   0.1% |
 Orthonormalize:                     0.066     0.000   0.0% |
  calc_s_matrix:                     0.022     0.022   0.0% |
  inverse-cholesky:                  0.000     0.000   0.0% |
  projections:                       0.015     0.015   0.0% |
  rotate_psi_s:                      0.028     0.028   0.0% |
Set symmetry:                        0.001     0.001   0.0% |
Other:                               0.932     0.932   1.3% ||
-----------------------------------------------------------
Total:                                        72.519 100.0%

Memory usage: 261.37 MiB
Date: Mon Aug 20 15:13:33 2018
