
  ___ ___ ___ _ _ _  
 |   |   |_  | | | | 
 | | | | | . | | | | 
 |__ |  _|___|_____|  1.4.0
 |___|_|             

User:   ???@3fe09ff0504a
Date:   Mon Aug 20 15:09:51 2018
Arch:   x86_64
Pid:    254
Python: 3.7.0
gpaw:   /app/gpaw/software/venv/lib/python3.7/site-packages/gpaw
_gpaw:  /app/gpaw/software/venv/lib/python3.7/site-packages/
        _gpaw.cpython-37m-x86_64-linux-gnu.so
ase:    /app/gpaw/software/venv/lib/python3.7/site-packages/ase (version 3.16.2)
numpy:  /app/gpaw/software/venv/lib/python3.7/site-packages/numpy (version 1.15.0)
scipy:  /app/gpaw/software/venv/lib/python3.7/site-packages/scipy (version 1.1.0)
units:  Angstrom and eV
cores:  1

Input parameters:
  gpts: [56 48 40]
  maxiter: 150
  mixer: {backend: pulay,
          beta: None,
          method: separate,
          nmaxold: None,
          weight: None}
  xc: PBE

System changes: positions, numbers, cell, pbc, initial_charges, initial_magmoms 

Initialize ...

Hf-setup:
  name: Hafnium
  id: d03a45b6fa1dd7f07e443d1513edf499
  Z: 72
  valence: 12
  core: 60
  charge: 0.0
  file: /app/gpaw/datasets/Hf.PBE
  cutoffs: 1.30(comp), 2.36(filt), 4.02(core), lmax=2
  valence states:
                energy  radius
    5s(2.00)   -66.831   1.397
    6s(2.00)    -5.097   1.397
    5p(6.00)   -35.599   1.307
    6p(0.00)    -1.401   1.307
    5d(2.00)    -2.699   1.334
    *d          24.513   1.334

  Using partial waves for Hf as LCAO basis

N-setup:
  name: Nitrogen
  id: 45c8c9c739e7b131496b9fd2deb94bff
  Z: 7
  valence: 5
  core: 2
  charge: 0.0
  file: /app/gpaw/datasets/N.PBE
  cutoffs: 0.58(comp), 1.11(filt), 0.96(core), lmax=2
  valence states:
                energy  radius
    2s(2.00)   -18.583   0.603
    2p(3.00)    -7.089   0.529
    *s           8.629   0.603
    *p          20.123   0.529
    *d           0.000   0.577

  Using partial waves for N as LCAO basis

C-setup:
  name: Carbon
  id: 2f012631b351e3618121587a96c50fca
  Z: 6
  valence: 4
  core: 2
  charge: 0.0
  file: /app/gpaw/datasets/C.PBE
  cutoffs: 0.64(comp), 1.14(filt), 1.14(core), lmax=2
  valence states:
                energy  radius
    2s(2.00)   -13.751   0.635
    2p(2.00)    -5.285   0.635
    *s          13.461   0.635
    *p          21.927   0.635
    *d           0.000   0.635

  Using partial waves for C as LCAO basis

Reference energy: -412395.464894

Spin-paired calculation

Occupation numbers:
  Fermi-Dirac: width=0.0000 eV

Convergence criteria:
  Maximum total energy change: 0.0005 eV / electron
  Maximum integral of absolute density change: 0.0001 electrons
  Maximum integral of absolute eigenstate change: 4e-08 eV^2
  Maximum number of iterations: 150

Symmetries present (total): 1

  ( 1  0  0)
  ( 0  1  0)
  ( 0  0  1)

1 k-point (Gamma)
1 k-point in the irreducible part of the Brillouin zone
       k-points in crystal coordinates                weights
   0:     0.00000000    0.00000000    0.00000000          1/1

Wave functions: Uniform real-space grid
  Kinetic energy operator: 6*3+1=19 point O(h^6) finite-difference Laplacian
  ScaLapack parameters: grid=1x1, blocksize=None 

Eigensolver
   Davidson(niter=1, smin=None, normalize=True) 

Densities:
  Coarse grid: 56*48*40 grid
  Fine grid: 112*96*80 grid
  Total Charge: 0.000000 

Density mixing:
  Method: separate
  Backend: pulay
  Linear mixing parameter: 0.25
  Mixing with 3 old densities
  No damping of long wave oscillations 

Hamiltonian:
  XC and Coulomb potentials evaluated on a 112*96*80 grid
  Using the PBE Exchange-Correlation functional
  Interpolation: tri-quintic (5. degree polynomial)
  Poisson solver: Jacobi solver with 5 multi-grid levels
    Coarsest grid: 7 x 6 x 5 points
    Stencil: 6*3+1=19 point O(h^6) finite-difference Laplacian
    Max iterations: 1000
    Tolerance: 2.000000e-10 

Memory estimate:
  Process memory now: 252.39 MiB
  Calculator: 111.12 MiB
    Density: 42.40 MiB
      Arrays: 20.61 MiB
      Localized functions: 17.17 MiB
      Mixer: 4.61 MiB
    Hamiltonian: 30.06 MiB
      Arrays: 13.48 MiB
      XC: 0.00 MiB
      Poisson: 15.43 MiB
      vbar: 1.15 MiB
    Wavefunctions: 38.66 MiB
      Arrays psit_nG: 16.15 MiB
      Eigensolver: 20.03 MiB
      Projections: 0.01 MiB
      Projectors: 2.47 MiB

Total number of cores used: 1

Number of atoms: 3
Number of atomic orbitals: 21
Number of bands in calculation: 21
Bands to converge: occupied states only
Number of valence electrons: 21

... initialized

Initializing position-dependent things.

Density initialized from atomic densities
Creating initial wave functions:
  21 bands from LCAO basis set

      .--------------------.  
     /|                    |  
    / |                    |  
   /  |                    |  
  /   |                    |  
 *    |     Hf   C         |  
 |    |                    |  
 |    .----N---------------.  
 |   /                    /   
 |  /                    /    
 | /                    /     
 |/                    /      
 *--------------------*       

Positions:
   0 Hf     3.400000    4.550000    3.000000    ( 0.0000,  0.0000,  0.0000)
   1 N      3.400000    2.950000    3.000000    ( 0.0000,  0.0000,  0.0000)
   2 C      5.100000    4.550000    3.000000    ( 0.0000,  0.0000,  0.0000)

Unit cell:
           periodic     x           y           z      points  spacing
  1. axis:    no     8.500000    0.000000    0.000000    56     0.1518
  2. axis:    no     0.000000    7.500000    0.000000    48     0.1562
  3. axis:    no     0.000000    0.000000    6.000000    40     0.1500

  Lengths:   8.500000   7.500000   6.000000
  Angles:   90.000000  90.000000  90.000000

Effective grid spacing dv^(1/3) = 0.1527

                     log10-error:    total        iterations:
           time      wfs    density  energy       fermi  poisson
iter:   1  15:09:56  +2.59   +inf   -16.896422    0      15     
iter:   2  15:09:57  +1.11   +inf   -17.633560    0             
iter:   3  15:09:58  +0.50   +inf   -17.823363    0             
iter:   4  15:10:00  +0.43  -0.70   -13.917054    0      9      
iter:   5  15:10:03  +0.44  -0.87   -13.117514    0      8      
iter:   6  15:10:06  +0.33  -1.02   -12.471027    0      8      
iter:   7  15:10:08  +0.20  -1.31   -12.467008    0      8      
iter:   8  15:10:11  +0.19  -1.58   -12.481612    0      7      
iter:   9  15:10:13  -0.45  -1.94   -12.492544    0      6      
iter:  10  15:10:16  -0.53  -2.22   -12.495378    0      5      
iter:  11  15:10:18  -1.08  -2.41   -12.496015    0      5      
iter:  12  15:10:20  -1.23  -2.52   -12.496022    0      5      
iter:  13  15:10:22  -1.78  -2.91   -12.496148    0      4      
iter:  14  15:10:25  -1.79  -3.03   -12.496422    0      4      
iter:  15  15:10:27  -2.47  -3.27   -12.496488    0      4      
iter:  16  15:10:29  -2.45  -3.85   -12.496592    0      3      
iter:  17  15:10:31  -3.02  -3.85   -12.496587    0      2      
iter:  18  15:10:32  -3.03  -3.83   -12.496531    0      1      
iter:  19  15:10:34  -3.53  -3.78   -12.496733    0      2      
iter:  20  15:10:36  -3.56  -3.75   -12.496631    0      2      
iter:  21  15:10:38  -4.00  -3.69   -12.496590    0      3      
iter:  22  15:10:40  -4.09  -3.75   -12.496751    0      2      
iter:  23  15:10:42  -4.47  -3.86   -12.496662    0      3      
iter:  24  15:10:44  -4.66  -4.07   -12.496678    0      2      
iter:  25  15:10:46  -4.91  -4.41   -12.496485    0      1      
iter:  26  15:10:48  -5.22  -4.53   -12.496564    0      2      
iter:  27  15:10:49  -5.42  -5.09   -12.496699    0      1      
iter:  28  15:10:51  -5.70  -5.22   -12.496642    0      1      
iter:  29  15:10:53  -5.88  -5.46   -12.496627    0      1      
iter:  30  15:10:55  -6.13  -5.71   -12.496618    0      1      
iter:  31  15:10:56  -6.33  -5.87   -12.496615    0      1      
iter:  32  15:10:58  -6.55  -6.00   -12.496612    0      1      
iter:  33  15:11:00  -6.76  -6.15   -12.496612    0      1      
iter:  34  15:11:02  -6.97  -6.33   -12.496611    0      1      
iter:  35  15:11:03  -7.17  -6.50   -12.496611    0      1      
iter:  36  15:11:05  -7.38  -6.61   -12.496611    0      1      
iter:  37  15:11:07  -7.59  -6.62   -12.496611    0      1      

Converged after 37 iterations.

Dipole moment: (-0.867795, 1.014240, -0.000000) |e|*Ang

Energy contributions relative to reference atoms: (reference = -412395.464894)

Kinetic:        +62.287529
Potential:      -49.981733
External:        +0.000000
XC:             -25.013445
Entropy (-ST):   +0.000000
Local:           +0.211039
--------------------------
Free energy:    -12.496611
Extrapolated:   -12.496611

Fermi level: -4.34496

 Band  Eigenvalues  Occupancy
    0    -64.07440    2.00000
    1    -34.18450    2.00000
    2    -33.77981    2.00000
    3    -33.25129    2.00000
    4    -15.37291    2.00000
    5    -11.86875    2.00000
    6     -7.35115    2.00000
    7     -6.22385    2.00000
    8     -5.44327    2.00000
    9     -5.07328    2.00000
   10     -4.34496    1.00000
   11     -3.09287    0.00000
   12     -2.13112    0.00000
   13     -0.12120    0.00000
   14      0.42127    0.00000
   15      2.00042    0.00000
   16      2.19045    0.00000
   17      2.68870    0.00000
   18      4.25724    0.00000
   19      4.47103    0.00000
   20      4.68144    0.00000

Writing to 3_38249_Pm_PBE_xx1_6000000000000005.gpw (mode='all')

Timing:                              incl.     excl.
-----------------------------------------------------------
Hamiltonian:                         2.964     0.000   0.0% |
 Atomic:                             0.197     0.001   0.0% |
  XC Correction:                     0.196     0.196   0.3% |
 Calculate atomic Hamiltonians:      0.005     0.005   0.0% |
 Communicate:                        0.000     0.000   0.0% |
 Hartree integrate/restrict:         0.011     0.011   0.0% |
 Initialize Hamiltonian:             0.000     0.000   0.0% |
 Poisson:                            2.044     2.044   2.7% ||
 XC 3D grid:                         0.703     0.703   0.9% |
 vbar:                               0.003     0.003   0.0% |
LCAO initialization:                 0.634     0.527   0.7% |
 LCAO eigensolver:                   0.033     0.000   0.0% |
  Calculate projections:             0.000     0.000   0.0% |
  DenseAtomicCorrection:             0.000     0.000   0.0% |
  Distribute overlap matrix:         0.000     0.000   0.0% |
  Orbital Layouts:                   0.000     0.000   0.0% |
  Potential matrix:                  0.033     0.033   0.0% |
 LCAO to grid:                       0.070     0.070   0.1% |
 Set positions (LCAO WFS):           0.004     0.000   0.0% |
  Basic WFS set positions:           0.000     0.000   0.0% |
  Basis functions set positions:     0.000     0.000   0.0% |
  TCI: Calculate S, T, P:            0.003     0.003   0.0% |
SCF-cycle:                          71.232     0.015   0.0% |
 Davidson:                          24.345     4.692   6.2% |-|
  Apply hamiltonian:                 1.897     1.897   2.5% ||
  Subspace diag:                     6.823     0.004   0.0% |
   calc_h_matrix:                    3.351     1.455   1.9% ||
    Apply hamiltonian:               1.897     1.897   2.5% ||
   diagonalize:                      0.009     0.009   0.0% |
   rotate_psi:                       3.459     3.459   4.6% |-|
  calc. matrices:                    7.470     5.572   7.4% |--|
   Apply hamiltonian:                1.898     1.898   2.5% ||
  diagonalize:                       0.029     0.029   0.0% |
  rotate_psi:                        3.435     3.435   4.5% |-|
 Density:                            0.926     0.001   0.0% |
  Atomic density matrices:           0.024     0.024   0.0% |
  Mix:                               0.646     0.646   0.9% |
  Multipole moments:                 0.006     0.006   0.0% |
  Pseudo density:                    0.250     0.249   0.3% |
   Symmetrize density:               0.001     0.001   0.0% |
 Hamiltonian:                       45.880     0.004   0.0% |
  Atomic:                            6.714     0.030   0.0% |
   XC Correction:                    6.685     6.685   8.8% |---|
  Calculate atomic Hamiltonians:     0.158     0.158   0.2% |
  Communicate:                       0.000     0.000   0.0% |
  Hartree integrate/restrict:        0.381     0.381   0.5% |
  Poisson:                          14.609    14.609  19.3% |-------|
  XC 3D grid:                       23.946    23.946  31.6% |------------|
  vbar:                              0.068     0.068   0.1% |
 Orthonormalize:                     0.065     0.000   0.0% |
  calc_s_matrix:                     0.022     0.022   0.0% |
  inverse-cholesky:                  0.000     0.000   0.0% |
  projections:                       0.015     0.015   0.0% |
  rotate_psi_s:                      0.028     0.028   0.0% |
Set symmetry:                        0.001     0.001   0.0% |
Other:                               0.944     0.944   1.2% |
-----------------------------------------------------------
Total:                                        75.775 100.0%

Memory usage: 253.27 MiB
Date: Mon Aug 20 15:11:07 2018
