
  ___ ___ ___ _ _ _  
 |   |   |_  | | | | 
 | | | | | . | | | | 
 |__ |  _|___|_____|  1.4.0
 |___|_|             

User:   ???@3fe09ff0504a
Date:   Mon Aug 20 16:00:20 2018
Arch:   x86_64
Pid:    566
Python: 3.7.0
gpaw:   /app/gpaw/software/venv/lib/python3.7/site-packages/gpaw
_gpaw:  /app/gpaw/software/venv/lib/python3.7/site-packages/
        _gpaw.cpython-37m-x86_64-linux-gnu.so
ase:    /app/gpaw/software/venv/lib/python3.7/site-packages/ase (version 3.16.2)
numpy:  /app/gpaw/software/venv/lib/python3.7/site-packages/numpy (version 1.15.0)
scipy:  /app/gpaw/software/venv/lib/python3.7/site-packages/scipy (version 1.1.0)
units:  Angstrom and eV
cores:  1

Input parameters:
  gpts: [56 48 40]
  maxiter: 150
  mixer: {backend: pulay,
          beta: None,
          method: separate,
          nmaxold: None,
          weight: None}
  xc: PBE

System changes: positions, numbers, cell, pbc, initial_charges, initial_magmoms 

Initialize ...

Hf-setup:
  name: Hafnium
  id: d03a45b6fa1dd7f07e443d1513edf499
  Z: 72
  valence: 12
  core: 60
  charge: 0.0
  file: /app/gpaw/datasets/Hf.PBE
  cutoffs: 1.30(comp), 2.36(filt), 4.02(core), lmax=2
  valence states:
                energy  radius
    5s(2.00)   -66.831   1.397
    6s(2.00)    -5.097   1.397
    5p(6.00)   -35.599   1.307
    6p(0.00)    -1.401   1.307
    5d(2.00)    -2.699   1.334
    *d          24.513   1.334

  Using partial waves for Hf as LCAO basis

N-setup:
  name: Nitrogen
  id: 45c8c9c739e7b131496b9fd2deb94bff
  Z: 7
  valence: 5
  core: 2
  charge: 0.0
  file: /app/gpaw/datasets/N.PBE
  cutoffs: 0.58(comp), 1.11(filt), 0.96(core), lmax=2
  valence states:
                energy  radius
    2s(2.00)   -18.583   0.603
    2p(3.00)    -7.089   0.529
    *s           8.629   0.603
    *p          20.123   0.529
    *d           0.000   0.577

  Using partial waves for N as LCAO basis

C-setup:
  name: Carbon
  id: 2f012631b351e3618121587a96c50fca
  Z: 6
  valence: 4
  core: 2
  charge: 0.0
  file: /app/gpaw/datasets/C.PBE
  cutoffs: 0.64(comp), 1.14(filt), 1.14(core), lmax=2
  valence states:
                energy  radius
    2s(2.00)   -13.751   0.635
    2p(2.00)    -5.285   0.635
    *s          13.461   0.635
    *p          21.927   0.635
    *d           0.000   0.635

  Using partial waves for C as LCAO basis

Reference energy: -412395.464894

Spin-paired calculation

Occupation numbers:
  Fermi-Dirac: width=0.0000 eV

Convergence criteria:
  Maximum total energy change: 0.0005 eV / electron
  Maximum integral of absolute density change: 0.0001 electrons
  Maximum integral of absolute eigenstate change: 4e-08 eV^2
  Maximum number of iterations: 150

Symmetries present (total): 1

  ( 1  0  0)
  ( 0  1  0)
  ( 0  0  1)

1 k-point (Gamma)
1 k-point in the irreducible part of the Brillouin zone
       k-points in crystal coordinates                weights
   0:     0.00000000    0.00000000    0.00000000          1/1

Wave functions: Uniform real-space grid
  Kinetic energy operator: 6*3+1=19 point O(h^6) finite-difference Laplacian
  ScaLapack parameters: grid=1x1, blocksize=None 

Eigensolver
   Davidson(niter=1, smin=None, normalize=True) 

Densities:
  Coarse grid: 56*48*40 grid
  Fine grid: 112*96*80 grid
  Total Charge: 0.000000 

Density mixing:
  Method: separate
  Backend: pulay
  Linear mixing parameter: 0.25
  Mixing with 3 old densities
  No damping of long wave oscillations 

Hamiltonian:
  XC and Coulomb potentials evaluated on a 112*96*80 grid
  Using the PBE Exchange-Correlation functional
  Interpolation: tri-quintic (5. degree polynomial)
  Poisson solver: Jacobi solver with 5 multi-grid levels
    Coarsest grid: 7 x 6 x 5 points
    Stencil: 6*3+1=19 point O(h^6) finite-difference Laplacian
    Max iterations: 1000
    Tolerance: 2.000000e-10 

Memory estimate:
  Process memory now: 230.43 MiB
  Calculator: 111.12 MiB
    Density: 42.40 MiB
      Arrays: 20.61 MiB
      Localized functions: 17.17 MiB
      Mixer: 4.61 MiB
    Hamiltonian: 30.06 MiB
      Arrays: 13.48 MiB
      XC: 0.00 MiB
      Poisson: 15.43 MiB
      vbar: 1.15 MiB
    Wavefunctions: 38.66 MiB
      Arrays psit_nG: 16.15 MiB
      Eigensolver: 20.03 MiB
      Projections: 0.01 MiB
      Projectors: 2.47 MiB

Total number of cores used: 1

Number of atoms: 3
Number of atomic orbitals: 21
Number of bands in calculation: 21
Bands to converge: occupied states only
Number of valence electrons: 21

... initialized

Initializing position-dependent things.

Density initialized from atomic densities
Creating initial wave functions:
  21 bands from LCAO basis set

      .--------------------.  
     /|                    |  
    / |                    |  
   /  |                    |  
  /   |                    |  
 *    |                    |  
 |    |      C NHf         |  
 |    .--------------------.  
 |   /                    /   
 |  /                    /    
 | /                    /     
 |/                    /      
 *--------------------*       

Positions:
   0 Hf     4.975000    4.475000    3.000000    ( 0.0000,  0.0000,  0.0000)
   1 N      4.975000    3.025000    3.000000    ( 0.0000,  0.0000,  0.0000)
   2 C      3.525000    4.475000    3.000000    ( 0.0000,  0.0000,  0.0000)

Unit cell:
           periodic     x           y           z      points  spacing
  1. axis:    no     8.500000    0.000000    0.000000    56     0.1518
  2. axis:    no     0.000000    7.500000    0.000000    48     0.1562
  3. axis:    no     0.000000    0.000000    6.000000    40     0.1500

  Lengths:   8.500000   7.500000   6.000000
  Angles:   90.000000  90.000000  90.000000

Effective grid spacing dv^(1/3) = 0.1527

                     log10-error:    total        iterations:
           time      wfs    density  energy       fermi  poisson
iter:   1  16:00:25  +2.60   +inf    -8.720312    0      15     
iter:   2  16:00:26  +1.32   +inf    -9.844868    0             
iter:   3  16:00:26  +0.67   +inf   -10.095524    0             
iter:   4  16:00:29  +0.52  -0.68    -5.573804    0      9      
iter:   5  16:00:32  +0.48  -0.92    -4.530694    0      8      
iter:   6  16:00:34  +0.35  -1.11    -4.204496    0      8      
iter:   7  16:00:37  +0.33  -1.39    -4.255579    0      7      
iter:   8  16:00:39  +0.05  -1.61    -4.285660    0      7      
iter:   9  16:00:42  -0.37  -1.92    -4.293518    0      6      
iter:  10  16:00:44  -0.64  -2.23    -4.295755    0      5      
iter:  11  16:00:46  -1.11  -2.40    -4.296331    0      5      
iter:  12  16:00:49  -1.35  -2.59    -4.296515    0      5      
iter:  13  16:00:51  -1.81  -2.76    -4.296688    0      5      
iter:  14  16:00:53  -1.94  -3.02    -4.296825    0      4      
iter:  15  16:00:55  -2.42  -3.21    -4.296910    0      4      
iter:  16  16:00:57  -2.48  -3.46    -4.296938    0      3      
iter:  17  16:01:00  -2.96  -3.59    -4.296966    0      4      
iter:  18  16:01:02  -3.03  -4.01    -4.296978    0      3      
iter:  19  16:01:03  -3.44  -4.17    -4.297025    0      2      
iter:  20  16:01:05  -3.49  -4.22    -4.297040    0      2      
iter:  21  16:01:07  -3.92  -4.33    -4.297049    0      2      
iter:  22  16:01:09  -3.98  -4.37    -4.297045    0      2      
iter:  23  16:01:11  -4.40  -4.49    -4.297068    0      2      
iter:  24  16:01:13  -4.48  -4.75    -4.297020    0      2      
iter:  25  16:01:15  -4.87  -5.00    -4.296991    0      1      
iter:  26  16:01:16  -4.94  -5.07    -4.297007    0      1      
iter:  27  16:01:18  -5.32  -5.40    -4.296991    0      1      
iter:  28  16:01:20  -5.39  -5.47    -4.296999    0      1      
iter:  29  16:01:22  -5.77  -5.58    -4.297005    0      1      
iter:  30  16:01:23  -5.83  -5.75    -4.297010    0      1      
iter:  31  16:01:25  -6.22  -5.89    -4.297017    0      1      
iter:  32  16:01:27  -6.26  -6.03    -4.297010    0      1      
iter:  33  16:01:29  -6.66  -6.06    -4.297005    0      1      
iter:  34  16:01:30  -6.67  -5.89    -4.297004    0      1      
iter:  35  16:01:32  -7.08  -5.79    -4.297004    0      1      
iter:  36  16:01:34  -7.07  -5.74    -4.297003    0      1      
iter:  37  16:01:36  -7.48  -5.68    -4.297005    0      1      

Converged after 37 iterations.

Dipole moment: (0.616459, 0.692687, 0.000000) |e|*Ang

Energy contributions relative to reference atoms: (reference = -412395.464894)

Kinetic:       +132.286411
Potential:     -102.823996
External:        +0.000000
XC:             -34.503394
Entropy (-ST):   +0.000000
Local:           +0.743974
--------------------------
Free energy:     -4.297005
Extrapolated:    -4.297005

Fermi level: -3.60824

 Band  Eigenvalues  Occupancy
    0    -64.08701    2.00000
    1    -35.28265    2.00000
    2    -34.80998    2.00000
    3    -32.76572    2.00000
    4    -15.04964    2.00000
    5    -10.93140    2.00000
    6     -9.05968    2.00000
    7     -7.26238    2.00000
    8     -6.10613    2.00000
    9     -5.81036    2.00000
   10     -3.60824    1.00000
   11     -2.69057    0.00000
   12     -1.75810    0.00000
   13      0.41772    0.00000
   14      1.42630    0.00000
   15      2.69364    0.00000
   16      3.08820    0.00000
   17      3.38577    0.00000
   18      4.24224    0.00000
   19      4.89120    0.00000
   20      5.90689    0.00000

Writing to 3_38249_Pm_PBE_yy1_45.gpw (mode='all')

Timing:                              incl.     excl.
-----------------------------------------------------------
Hamiltonian:                         2.955     0.000   0.0% |
 Atomic:                             0.196     0.001   0.0% |
  XC Correction:                     0.195     0.195   0.3% |
 Calculate atomic Hamiltonians:      0.005     0.005   0.0% |
 Communicate:                        0.000     0.000   0.0% |
 Hartree integrate/restrict:         0.011     0.011   0.0% |
 Initialize Hamiltonian:             0.000     0.000   0.0% |
 Poisson:                            2.036     2.036   2.7% ||
 XC 3D grid:                         0.703     0.703   0.9% |
 vbar:                               0.003     0.003   0.0% |
LCAO initialization:                 0.687     0.579   0.8% |
 LCAO eigensolver:                   0.034     0.000   0.0% |
  Calculate projections:             0.000     0.000   0.0% |
  DenseAtomicCorrection:             0.000     0.000   0.0% |
  Distribute overlap matrix:         0.000     0.000   0.0% |
  Orbital Layouts:                   0.000     0.000   0.0% |
  Potential matrix:                  0.034     0.034   0.0% |
 LCAO to grid:                       0.071     0.071   0.1% |
 Set positions (LCAO WFS):           0.004     0.000   0.0% |
  Basic WFS set positions:           0.000     0.000   0.0% |
  Basis functions set positions:     0.000     0.000   0.0% |
  TCI: Calculate S, T, P:            0.003     0.003   0.0% |
SCF-cycle:                          71.442     0.015   0.0% |
 Davidson:                          24.399     4.715   6.2% |-|
  Apply hamiltonian:                 1.893     1.893   2.5% ||
  Subspace diag:                     6.841     0.004   0.0% |
   calc_h_matrix:                    3.375     1.477   1.9% ||
    Apply hamiltonian:               1.898     1.898   2.5% ||
   diagonalize:                      0.009     0.009   0.0% |
   rotate_psi:                       3.454     3.454   4.5% |-|
  calc. matrices:                    7.484     5.592   7.4% |--|
   Apply hamiltonian:                1.892     1.892   2.5% ||
  diagonalize:                       0.029     0.029   0.0% |
  rotate_psi:                        3.437     3.437   4.5% |-|
 Density:                            0.925     0.001   0.0% |
  Atomic density matrices:           0.024     0.024   0.0% |
  Mix:                               0.646     0.646   0.9% |
  Multipole moments:                 0.006     0.006   0.0% |
  Pseudo density:                    0.248     0.248   0.3% |
   Symmetrize density:               0.001     0.001   0.0% |
 Hamiltonian:                       46.038     0.004   0.0% |
  Atomic:                            6.702     0.030   0.0% |
   XC Correction:                    6.672     6.672   8.8% |---|
  Calculate atomic Hamiltonians:     0.164     0.164   0.2% |
  Communicate:                       0.000     0.000   0.0% |
  Hartree integrate/restrict:        0.375     0.375   0.5% |
  Poisson:                          14.769    14.769  19.4% |-------|
  XC 3D grid:                       23.956    23.956  31.5% |------------|
  vbar:                              0.068     0.068   0.1% |
 Orthonormalize:                     0.065     0.000   0.0% |
  calc_s_matrix:                     0.022     0.022   0.0% |
  inverse-cholesky:                  0.000     0.000   0.0% |
  projections:                       0.015     0.015   0.0% |
  rotate_psi_s:                      0.028     0.028   0.0% |
Set symmetry:                        0.001     0.001   0.0% |
Other:                               0.937     0.937   1.2% |
-----------------------------------------------------------
Total:                                        76.022 100.0%

Memory usage: 237.17 MiB
Date: Mon Aug 20 16:01:36 2018
