
  ___ ___ ___ _ _ _  
 |   |   |_  | | | | 
 | | | | | . | | | | 
 |__ |  _|___|_____|  1.4.0
 |___|_|             

User:   ???@3fe09ff0504a
Date:   Mon Aug 20 15:36:45 2018
Arch:   x86_64
Pid:    417
Python: 3.7.0
gpaw:   /app/gpaw/software/venv/lib/python3.7/site-packages/gpaw
_gpaw:  /app/gpaw/software/venv/lib/python3.7/site-packages/
        _gpaw.cpython-37m-x86_64-linux-gnu.so
ase:    /app/gpaw/software/venv/lib/python3.7/site-packages/ase (version 3.16.2)
numpy:  /app/gpaw/software/venv/lib/python3.7/site-packages/numpy (version 1.15.0)
scipy:  /app/gpaw/software/venv/lib/python3.7/site-packages/scipy (version 1.1.0)
units:  Angstrom and eV
cores:  1

Input parameters:
  gpts: [56 48 40]
  maxiter: 150
  mixer: {backend: pulay,
          beta: None,
          method: separate,
          nmaxold: None,
          weight: None}
  xc: PBE

System changes: positions, numbers, cell, pbc, initial_charges, initial_magmoms 

Initialize ...

Hf-setup:
  name: Hafnium
  id: d03a45b6fa1dd7f07e443d1513edf499
  Z: 72
  valence: 12
  core: 60
  charge: 0.0
  file: /app/gpaw/datasets/Hf.PBE
  cutoffs: 1.30(comp), 2.36(filt), 4.02(core), lmax=2
  valence states:
                energy  radius
    5s(2.00)   -66.831   1.397
    6s(2.00)    -5.097   1.397
    5p(6.00)   -35.599   1.307
    6p(0.00)    -1.401   1.307
    5d(2.00)    -2.699   1.334
    *d          24.513   1.334

  Using partial waves for Hf as LCAO basis

N-setup:
  name: Nitrogen
  id: 45c8c9c739e7b131496b9fd2deb94bff
  Z: 7
  valence: 5
  core: 2
  charge: 0.0
  file: /app/gpaw/datasets/N.PBE
  cutoffs: 0.58(comp), 1.11(filt), 0.96(core), lmax=2
  valence states:
                energy  radius
    2s(2.00)   -18.583   0.603
    2p(3.00)    -7.089   0.529
    *s           8.629   0.603
    *p          20.123   0.529
    *d           0.000   0.577

  Using partial waves for N as LCAO basis

C-setup:
  name: Carbon
  id: 2f012631b351e3618121587a96c50fca
  Z: 6
  valence: 4
  core: 2
  charge: 0.0
  file: /app/gpaw/datasets/C.PBE
  cutoffs: 0.64(comp), 1.14(filt), 1.14(core), lmax=2
  valence states:
                energy  radius
    2s(2.00)   -13.751   0.635
    2p(2.00)    -5.285   0.635
    *s          13.461   0.635
    *p          21.927   0.635
    *d           0.000   0.635

  Using partial waves for C as LCAO basis

Reference energy: -412395.464894

Spin-paired calculation

Occupation numbers:
  Fermi-Dirac: width=0.0000 eV

Convergence criteria:
  Maximum total energy change: 0.0005 eV / electron
  Maximum integral of absolute density change: 0.0001 electrons
  Maximum integral of absolute eigenstate change: 4e-08 eV^2
  Maximum number of iterations: 150

Symmetries present (total): 1

  ( 1  0  0)
  ( 0  1  0)
  ( 0  0  1)

1 k-point (Gamma)
1 k-point in the irreducible part of the Brillouin zone
       k-points in crystal coordinates                weights
   0:     0.00000000    0.00000000    0.00000000          1/1

Wave functions: Uniform real-space grid
  Kinetic energy operator: 6*3+1=19 point O(h^6) finite-difference Laplacian
  ScaLapack parameters: grid=1x1, blocksize=None 

Eigensolver
   Davidson(niter=1, smin=None, normalize=True) 

Densities:
  Coarse grid: 56*48*40 grid
  Fine grid: 112*96*80 grid
  Total Charge: 0.000000 

Density mixing:
  Method: separate
  Backend: pulay
  Linear mixing parameter: 0.25
  Mixing with 3 old densities
  No damping of long wave oscillations 

Hamiltonian:
  XC and Coulomb potentials evaluated on a 112*96*80 grid
  Using the PBE Exchange-Correlation functional
  Interpolation: tri-quintic (5. degree polynomial)
  Poisson solver: Jacobi solver with 5 multi-grid levels
    Coarsest grid: 7 x 6 x 5 points
    Stencil: 6*3+1=19 point O(h^6) finite-difference Laplacian
    Max iterations: 1000
    Tolerance: 2.000000e-10 

Memory estimate:
  Process memory now: 41.45 MiB
  Calculator: 111.12 MiB
    Density: 42.40 MiB
      Arrays: 20.61 MiB
      Localized functions: 17.17 MiB
      Mixer: 4.61 MiB
    Hamiltonian: 30.06 MiB
      Arrays: 13.48 MiB
      XC: 0.00 MiB
      Poisson: 15.43 MiB
      vbar: 1.15 MiB
    Wavefunctions: 38.66 MiB
      Arrays psit_nG: 16.15 MiB
      Eigensolver: 20.03 MiB
      Projections: 0.01 MiB
      Projectors: 2.47 MiB

Total number of cores used: 1

Number of atoms: 3
Number of atomic orbitals: 21
Number of bands in calculation: 21
Bands to converge: occupied states only
Number of valence electrons: 21

... initialized

Initializing position-dependent things.

Density initialized from atomic densities
Creating initial wave functions:
  21 bands from LCAO basis set

      .--------------------.  
     /|                    |  
    / |                    |  
   /  |                    |  
  /   |                    |  
 *    |      Hf  C         |  
 |    |                    |  
 |    .----N---------------.  
 |   /                    /   
 |  /                    /    
 | /                    /     
 |/                    /      
 *--------------------*       

Positions:
   0 Hf     3.400000    4.650000    3.000000    ( 0.0000,  0.0000,  0.0000)
   1 N      3.400000    2.850000    3.000000    ( 0.0000,  0.0000,  0.0000)
   2 C      5.100000    4.650000    3.000000    ( 0.0000,  0.0000,  0.0000)

Unit cell:
           periodic     x           y           z      points  spacing
  1. axis:    no     8.500000    0.000000    0.000000    56     0.1518
  2. axis:    no     0.000000    7.500000    0.000000    48     0.1562
  3. axis:    no     0.000000    0.000000    6.000000    40     0.1500

  Lengths:   8.500000   7.500000   6.000000
  Angles:   90.000000  90.000000  90.000000

Effective grid spacing dv^(1/3) = 0.1527

                     log10-error:    total        iterations:
           time      wfs    density  energy       fermi  poisson
iter:   1  15:36:50  +2.60   +inf   -17.840088    0      15     
iter:   2  15:36:51  +1.01   +inf   -18.408981    0             
iter:   3  15:36:51  +0.42   +inf   -18.558032    0             
iter:   4  15:36:54  +0.36  -0.72   -15.070779    0      9      
iter:   5  15:36:57  +0.39  -0.84   -14.478476    0      8      
iter:   6  15:36:59  +0.33  -0.97   -13.695960    0      8      
iter:   7  15:37:02  +0.14  -1.24   -13.641402    0      8      
iter:   8  15:37:05  +0.18  -1.49   -13.652900    0      7      
iter:   9  15:37:07  -0.43  -1.76   -13.664185    0      7      
iter:  10  15:37:10  -0.35  -2.05   -13.665871    0      5      
iter:  11  15:37:12  -1.09  -2.30   -13.666699    0      5      
iter:  12  15:37:14  -1.21  -2.50   -13.667131    0      5      
iter:  13  15:37:16  -1.75  -2.79   -13.667505    0      4      
iter:  14  15:37:19  -1.82  -2.83   -13.667705    0      5      
iter:  15  15:37:21  -2.33  -3.21   -13.667739    0      4      
iter:  16  15:37:23  -2.46  -3.51   -13.667706    0      3      
iter:  17  15:37:25  -2.96  -3.68   -13.667797    0      3      
iter:  18  15:37:27  -2.98  -3.74   -13.667911    0      3      
iter:  19  15:37:29  -3.47  -3.91   -13.667853    0      3      
iter:  20  15:37:31  -3.62  -4.35   -13.667784    0      2      
iter:  21  15:37:33  -3.95  -4.29   -13.667858    0      2      
iter:  22  15:37:34  -4.15  -4.50   -13.667970    0      1      
iter:  23  15:37:36  -4.41  -4.47   -13.667846    0      1      
iter:  24  15:37:38  -4.63  -4.41   -13.667804    0      1      
iter:  25  15:37:40  -4.85  -4.33   -13.667900    0      2      
iter:  26  15:37:41  -5.13  -4.45   -13.667973    0      1      
iter:  27  15:37:43  -5.35  -4.48   -13.667917    0      2      
iter:  28  15:37:45  -5.67  -4.66   -13.667754    0      1      
iter:  29  15:37:47  -5.80  -4.74   -13.667925    0      1      
iter:  30  15:37:49  -6.30  -5.00   -13.667847    0      1      
iter:  31  15:37:50  -6.45  -5.19   -13.667774    0      1      
iter:  32  15:37:52  -6.80  -5.44   -13.667860    0      1      
iter:  33  15:37:54  -7.00  -5.79   -13.667864    0      1      
iter:  34  15:37:56  -7.28  -5.97   -13.667861    0      1      
iter:  35  15:37:57  -7.46  -6.00   -13.667865    0      1      

Converged after 35 iterations.

Dipole moment: (-0.893237, 1.246800, -0.000000) |e|*Ang

Energy contributions relative to reference atoms: (reference = -412395.464894)

Kinetic:        +36.363287
Potential:      -29.050680
External:        +0.000000
XC:             -20.983776
Entropy (-ST):   +0.000000
Local:           +0.003305
--------------------------
Free energy:    -13.667865
Extrapolated:   -13.667865

Fermi level: -4.57224

 Band  Eigenvalues  Occupancy
    0    -64.56018    2.00000
    1    -34.21370    2.00000
    2    -33.79534    2.00000
    3    -33.78823    2.00000
    4    -15.64982    2.00000
    5    -11.90420    2.00000
    6     -6.64173    2.00000
    7     -5.43803    2.00000
    8     -5.27253    2.00000
    9     -5.09580    2.00000
   10     -4.57224    1.00000
   11     -3.29432    0.00000
   12     -2.36590    0.00000
   13     -0.47873    0.00000
   14      0.04915    0.00000
   15      1.21081    0.00000
   16      1.55764    0.00000
   17      2.37227    0.00000
   18      3.89830    0.00000
   19      4.13175    0.00000
   20      4.46703    0.00000

Writing to 3_38249_Pm_PBE_xx1_8.gpw (mode='all')

Timing:                              incl.     excl.
-----------------------------------------------------------
Hamiltonian:                         2.964     0.000   0.0% |
 Atomic:                             0.196     0.001   0.0% |
  XC Correction:                     0.195     0.195   0.3% |
 Calculate atomic Hamiltonians:      0.005     0.005   0.0% |
 Communicate:                        0.000     0.000   0.0% |
 Hartree integrate/restrict:         0.011     0.011   0.0% |
 Initialize Hamiltonian:             0.000     0.000   0.0% |
 Poisson:                            2.041     2.041   2.8% ||
 XC 3D grid:                         0.707     0.707   1.0% |
 vbar:                               0.003     0.003   0.0% |
LCAO initialization:                 0.686     0.580   0.8% |
 LCAO eigensolver:                   0.033     0.000   0.0% |
  Calculate projections:             0.000     0.000   0.0% |
  DenseAtomicCorrection:             0.000     0.000   0.0% |
  Distribute overlap matrix:         0.000     0.000   0.0% |
  Orbital Layouts:                   0.000     0.000   0.0% |
  Potential matrix:                  0.032     0.032   0.0% |
 LCAO to grid:                       0.068     0.068   0.1% |
 Set positions (LCAO WFS):           0.005     0.000   0.0% |
  Basic WFS set positions:           0.000     0.000   0.0% |
  Basis functions set positions:     0.000     0.000   0.0% |
  TCI: Calculate S, T, P:            0.004     0.004   0.0% |
SCF-cycle:                          68.111     0.015   0.0% |
 Davidson:                          23.095     4.478   6.1% |-|
  Apply hamiltonian:                 1.793     1.793   2.5% ||
  Subspace diag:                     6.467     0.003   0.0% |
   calc_h_matrix:                    3.169     1.378   1.9% ||
    Apply hamiltonian:               1.791     1.791   2.5% ||
   diagonalize:                      0.008     0.008   0.0% |
   rotate_psi:                       3.286     3.286   4.5% |-|
  calc. matrices:                    7.062     5.271   7.2% |--|
   Apply hamiltonian:                1.792     1.792   2.5% ||
  diagonalize:                       0.027     0.027   0.0% |
  rotate_psi:                        3.267     3.267   4.5% |-|
 Density:                            0.868     0.001   0.0% |
  Atomic density matrices:           0.022     0.022   0.0% |
  Mix:                               0.606     0.606   0.8% |
  Multipole moments:                 0.006     0.006   0.0% |
  Pseudo density:                    0.234     0.233   0.3% |
   Symmetrize density:               0.001     0.001   0.0% |
 Hamiltonian:                       44.067     0.003   0.0% |
  Atomic:                            6.305     0.028   0.0% |
   XC Correction:                    6.277     6.277   8.6% |--|
  Calculate atomic Hamiltonians:     0.149     0.149   0.2% |
  Communicate:                       0.000     0.000   0.0% |
  Hartree integrate/restrict:        0.354     0.354   0.5% |
  Poisson:                          14.619    14.619  20.1% |-------|
  XC 3D grid:                       22.572    22.572  31.0% |-----------|
  vbar:                              0.065     0.065   0.1% |
 Orthonormalize:                     0.066     0.000   0.0% |
  calc_s_matrix:                     0.022     0.022   0.0% |
  inverse-cholesky:                  0.000     0.000   0.0% |
  projections:                       0.015     0.015   0.0% |
  rotate_psi_s:                      0.029     0.029   0.0% |
Set symmetry:                        0.001     0.001   0.0% |
Other:                               1.054     1.054   1.4% ||
-----------------------------------------------------------
Total:                                        72.815 100.0%

Memory usage: 230.46 MiB
Date: Mon Aug 20 15:37:57 2018
