
  ___ ___ ___ _ _ _  
 |   |   |_  | | | | 
 | | | | | . | | | | 
 |__ |  _|___|_____|  1.4.0
 |___|_|             

User:   ???@3fe09ff0504a
Date:   Mon Aug 20 14:58:35 2018
Arch:   x86_64
Pid:    254
Python: 3.7.0
gpaw:   /app/gpaw/software/venv/lib/python3.7/site-packages/gpaw
_gpaw:  /app/gpaw/software/venv/lib/python3.7/site-packages/
        _gpaw.cpython-37m-x86_64-linux-gnu.so
ase:    /app/gpaw/software/venv/lib/python3.7/site-packages/ase (version 3.16.2)
numpy:  /app/gpaw/software/venv/lib/python3.7/site-packages/numpy (version 1.15.0)
scipy:  /app/gpaw/software/venv/lib/python3.7/site-packages/scipy (version 1.1.0)
units:  Angstrom and eV
cores:  1

Input parameters:
  gpts: [56 48 40]
  maxiter: 150
  mixer: {backend: pulay,
          beta: None,
          method: separate,
          nmaxold: None,
          weight: None}
  xc: PBE

System changes: positions, numbers, cell, pbc, initial_charges, initial_magmoms 

Initialize ...

Hf-setup:
  name: Hafnium
  id: d03a45b6fa1dd7f07e443d1513edf499
  Z: 72
  valence: 12
  core: 60
  charge: 0.0
  file: /app/gpaw/datasets/Hf.PBE
  cutoffs: 1.30(comp), 2.36(filt), 4.02(core), lmax=2
  valence states:
                energy  radius
    5s(2.00)   -66.831   1.397
    6s(2.00)    -5.097   1.397
    5p(6.00)   -35.599   1.307
    6p(0.00)    -1.401   1.307
    5d(2.00)    -2.699   1.334
    *d          24.513   1.334

  Using partial waves for Hf as LCAO basis

N-setup:
  name: Nitrogen
  id: 45c8c9c739e7b131496b9fd2deb94bff
  Z: 7
  valence: 5
  core: 2
  charge: 0.0
  file: /app/gpaw/datasets/N.PBE
  cutoffs: 0.58(comp), 1.11(filt), 0.96(core), lmax=2
  valence states:
                energy  radius
    2s(2.00)   -18.583   0.603
    2p(3.00)    -7.089   0.529
    *s           8.629   0.603
    *p          20.123   0.529
    *d           0.000   0.577

  Using partial waves for N as LCAO basis

C-setup:
  name: Carbon
  id: 2f012631b351e3618121587a96c50fca
  Z: 6
  valence: 4
  core: 2
  charge: 0.0
  file: /app/gpaw/datasets/C.PBE
  cutoffs: 0.64(comp), 1.14(filt), 1.14(core), lmax=2
  valence states:
                energy  radius
    2s(2.00)   -13.751   0.635
    2p(2.00)    -5.285   0.635
    *s          13.461   0.635
    *p          21.927   0.635
    *d           0.000   0.635

  Using partial waves for C as LCAO basis

Reference energy: -412395.464894

Spin-paired calculation

Occupation numbers:
  Fermi-Dirac: width=0.0000 eV

Convergence criteria:
  Maximum total energy change: 0.0005 eV / electron
  Maximum integral of absolute density change: 0.0001 electrons
  Maximum integral of absolute eigenstate change: 4e-08 eV^2
  Maximum number of iterations: 150

Symmetries present (total): 1

  ( 1  0  0)
  ( 0  1  0)
  ( 0  0  1)

1 k-point (Gamma)
1 k-point in the irreducible part of the Brillouin zone
       k-points in crystal coordinates                weights
   0:     0.00000000    0.00000000    0.00000000          1/1

Wave functions: Uniform real-space grid
  Kinetic energy operator: 6*3+1=19 point O(h^6) finite-difference Laplacian
  ScaLapack parameters: grid=1x1, blocksize=None 

Eigensolver
   Davidson(niter=1, smin=None, normalize=True) 

Densities:
  Coarse grid: 56*48*40 grid
  Fine grid: 112*96*80 grid
  Total Charge: 0.000000 

Density mixing:
  Method: separate
  Backend: pulay
  Linear mixing parameter: 0.25
  Mixing with 3 old densities
  No damping of long wave oscillations 

Hamiltonian:
  XC and Coulomb potentials evaluated on a 112*96*80 grid
  Using the PBE Exchange-Correlation functional
  Interpolation: tri-quintic (5. degree polynomial)
  Poisson solver: Jacobi solver with 5 multi-grid levels
    Coarsest grid: 7 x 6 x 5 points
    Stencil: 6*3+1=19 point O(h^6) finite-difference Laplacian
    Max iterations: 1000
    Tolerance: 2.000000e-10 

Memory estimate:
  Process memory now: 230.10 MiB
  Calculator: 111.12 MiB
    Density: 42.40 MiB
      Arrays: 20.61 MiB
      Localized functions: 17.17 MiB
      Mixer: 4.61 MiB
    Hamiltonian: 30.06 MiB
      Arrays: 13.48 MiB
      XC: 0.00 MiB
      Poisson: 15.43 MiB
      vbar: 1.15 MiB
    Wavefunctions: 38.66 MiB
      Arrays psit_nG: 16.15 MiB
      Eigensolver: 20.03 MiB
      Projections: 0.01 MiB
      Projectors: 2.47 MiB

Total number of cores used: 1

Number of atoms: 3
Number of atomic orbitals: 21
Number of bands in calculation: 21
Bands to converge: occupied states only
Number of valence electrons: 21

... initialized

Initializing position-dependent things.

Density initialized from atomic densities
Creating initial wave functions:
  21 bands from LCAO basis set

      .--------------------.  
     /|                    |  
    / |                    |  
   /  |                    |  
  /   |                    |  
 *    |                    |  
 |    |     Nf  C          |  
 |    .--------------------.  
 |   /                    /   
 |  /                    /    
 | /                    /     
 |/                    /      
 *--------------------*       

Positions:
   0 Hf     3.400000    4.325000    3.000000    ( 0.0000,  0.0000,  0.0000)
   1 N      3.400000    3.175000    3.000000    ( 0.0000,  0.0000,  0.0000)
   2 C      5.100000    4.325000    3.000000    ( 0.0000,  0.0000,  0.0000)

Unit cell:
           periodic     x           y           z      points  spacing
  1. axis:    no     8.500000    0.000000    0.000000    56     0.1518
  2. axis:    no     0.000000    7.500000    0.000000    48     0.1562
  3. axis:    no     0.000000    0.000000    6.000000    40     0.1500

  Lengths:   8.500000   7.500000   6.000000
  Angles:   90.000000  90.000000  90.000000

Effective grid spacing dv^(1/3) = 0.1527

                     log10-error:    total        iterations:
           time      wfs    density  energy       fermi  poisson
iter:   1  14:58:40  +2.61   +inf    12.132078    0      15     
iter:   2  14:58:40  +1.40   +inf    10.744941    0             
iter:   3  14:58:41  +0.77   +inf    10.436804    0             
iter:   4  14:58:44  +0.57  -0.70    14.591836    0      9      
iter:   5  14:58:47  +0.39  -0.94    15.398489    0      9      
iter:   6  14:58:49  +0.59  -1.28    15.237780    0      8      
iter:   7  14:58:52  +0.02  -1.59    15.130933    0      7      
iter:   8  14:58:54  +0.00  -1.85    15.103199    0      6      
iter:   9  14:58:57  -0.52  -2.00    15.097292    0      6      
iter:  10  14:58:59  -0.80  -2.14    15.095561    0      6      
iter:  11  14:59:02  -1.31  -2.56    15.094627    0      5      
iter:  12  14:59:04  -1.41  -2.65    15.094210    0      5      
iter:  13  14:59:06  -1.81  -2.90    15.093963    0      5      
iter:  14  14:59:08  -1.98  -3.28    15.093717    0      3      
iter:  15  14:59:10  -2.31  -3.35    15.093664    0      4      
iter:  16  14:59:12  -2.50  -3.64    15.093582    0      3      
iter:  17  14:59:14  -2.78  -3.76    15.093566    0      3      
iter:  18  14:59:16  -2.98  -3.83    15.093509    0      3      
iter:  19  14:59:18  -3.27  -4.12    15.093458    0      2      
iter:  20  14:59:20  -3.42  -4.30    15.093535    0      1      
iter:  21  14:59:22  -3.71  -4.35    15.093473    0      1      
iter:  22  14:59:24  -3.87  -4.37    15.093492    0      2      
iter:  23  14:59:25  -4.20  -4.44    15.093468    0      2      
iter:  24  14:59:27  -4.30  -4.62    15.093702    0      1      
iter:  25  14:59:29  -4.58  -4.69    15.093514    0      2      
iter:  26  14:59:31  -4.79  -5.20    15.093576    0      1      
iter:  27  14:59:33  -5.07  -5.11    15.093520    0      1      
iter:  28  14:59:34  -5.24  -5.32    15.093526    0      1      
iter:  29  14:59:36  -5.52  -5.27    15.093490    0      1      
iter:  30  14:59:38  -5.72  -5.57    15.093544    0      1      
iter:  31  14:59:40  -5.97  -5.50    15.093512    0      1      
iter:  32  14:59:41  -6.15  -5.85    15.093535    0      1      
iter:  33  14:59:43  -6.41  -5.91    15.093532    0      1      
iter:  34  14:59:45  -6.57  -6.11    15.093533    0      1      
iter:  35  14:59:47  -6.84  -6.31    15.093534    0      1      
iter:  36  14:59:48  -6.96  -6.42    15.093536    0      1      
iter:  37  14:59:50  -7.27  -6.47    15.093537    0      1      
iter:  38  14:59:52  -7.35  -6.46    15.093538    0      1      
iter:  39  14:59:53  -7.69  -6.37    15.093539    0      1      

Converged after 39 iterations.

Dipole moment: (-1.034576, 0.234465, -0.000000) |e|*Ang

Energy contributions relative to reference atoms: (reference = -412395.464894)

Kinetic:       +222.742425
Potential:     -169.014983
External:        +0.000000
XC:             -40.779992
Entropy (-ST):   +0.000000
Local:           +2.146090
--------------------------
Free energy:    +15.093539
Extrapolated:   +15.093539

Fermi level: -3.31370

 Band  Eigenvalues  Occupancy
    0    -66.86239    2.00000
    1    -39.61442    2.00000
    2    -34.61537    2.00000
    3    -34.13505    2.00000
    4    -13.94262    2.00000
    5    -11.58745    2.00000
    6    -10.86869    2.00000
    7    -10.36922    2.00000
    8     -5.17459    2.00000
    9     -4.76545    2.00000
   10     -3.31370    1.00000
   11     -2.40767    0.00000
   12     -1.65116    0.00000
   13      0.12651    0.00000
   14      0.74191    0.00000
   15      2.86937    0.00000
   16      3.18405    0.00000
   17      3.69770    0.00000
   18      4.30572    0.00000
   19      4.99519    0.00000
   20      5.90477    0.00000

Writing to 3_38249_Pm_PBE_xx1_1500000000000001.gpw (mode='all')

Timing:                              incl.     excl.
-----------------------------------------------------------
Hamiltonian:                         2.963     0.000   0.0% |
 Atomic:                             0.197     0.001   0.0% |
  XC Correction:                     0.196     0.196   0.2% |
 Calculate atomic Hamiltonians:      0.005     0.005   0.0% |
 Communicate:                        0.000     0.000   0.0% |
 Hartree integrate/restrict:         0.011     0.011   0.0% |
 Initialize Hamiltonian:             0.000     0.000   0.0% |
 Poisson:                            2.044     2.044   2.6% ||
 XC 3D grid:                         0.703     0.703   0.9% |
 vbar:                               0.004     0.004   0.0% |
LCAO initialization:                 0.688     0.579   0.7% |
 LCAO eigensolver:                   0.035     0.000   0.0% |
  Calculate projections:             0.000     0.000   0.0% |
  DenseAtomicCorrection:             0.000     0.000   0.0% |
  Distribute overlap matrix:         0.000     0.000   0.0% |
  Orbital Layouts:                   0.000     0.000   0.0% |
  Potential matrix:                  0.034     0.034   0.0% |
 LCAO to grid:                       0.071     0.071   0.1% |
 Set positions (LCAO WFS):           0.004     0.000   0.0% |
  Basic WFS set positions:           0.000     0.000   0.0% |
  Basis functions set positions:     0.000     0.000   0.0% |
  TCI: Calculate S, T, P:            0.003     0.003   0.0% |
SCF-cycle:                          74.391     0.016   0.0% |
 Davidson:                          25.636     4.968   6.3% |--|
  Apply hamiltonian:                 1.993     1.993   2.5% ||
  Subspace diag:                     7.192     0.004   0.0% |
   calc_h_matrix:                    3.530     1.536   1.9% ||
    Apply hamiltonian:               1.994     1.994   2.5% ||
   diagonalize:                      0.009     0.009   0.0% |
   rotate_psi:                       3.649     3.649   4.6% |-|
  calc. matrices:                    7.831     5.836   7.4% |--|
   Apply hamiltonian:                1.996     1.996   2.5% ||
  diagonalize:                       0.031     0.031   0.0% |
  rotate_psi:                        3.622     3.622   4.6% |-|
 Density:                            0.988     0.001   0.0% |
  Atomic density matrices:           0.025     0.025   0.0% |
  Mix:                               0.695     0.695   0.9% |
  Multipole moments:                 0.006     0.006   0.0% |
  Pseudo density:                    0.262     0.261   0.3% |
   Symmetrize density:               0.001     0.001   0.0% |
 Hamiltonian:                       47.685     0.004   0.0% |
  Atomic:                            7.074     0.031   0.0% |
   XC Correction:                    7.043     7.043   8.9% |---|
  Calculate atomic Hamiltonians:     0.167     0.167   0.2% |
  Communicate:                       0.000     0.000   0.0% |
  Hartree integrate/restrict:        0.407     0.407   0.5% |
  Poisson:                          14.617    14.617  18.5% |------|
  XC 3D grid:                       25.346    25.346  32.1% |------------|
  vbar:                              0.070     0.070   0.1% |
 Orthonormalize:                     0.065     0.000   0.0% |
  calc_s_matrix:                     0.022     0.022   0.0% |
  inverse-cholesky:                  0.000     0.000   0.0% |
  projections:                       0.015     0.015   0.0% |
  rotate_psi_s:                      0.029     0.029   0.0% |
Set symmetry:                        0.001     0.001   0.0% |
Other:                               0.928     0.928   1.2% |
-----------------------------------------------------------
Total:                                        78.970 100.0%

Memory usage: 236.80 MiB
Date: Mon Aug 20 14:59:53 2018
