
  ___ ___ ___ _ _ _  
 |   |   |_  | | | | 
 | | | | | . | | | | 
 |__ |  _|___|_____|  1.4.0
 |___|_|             

User:   ???@3fe09ff0504a
Date:   Mon Aug 20 16:09:12 2018
Arch:   x86_64
Pid:    566
Python: 3.7.0
gpaw:   /app/gpaw/software/venv/lib/python3.7/site-packages/gpaw
_gpaw:  /app/gpaw/software/venv/lib/python3.7/site-packages/
        _gpaw.cpython-37m-x86_64-linux-gnu.so
ase:    /app/gpaw/software/venv/lib/python3.7/site-packages/ase (version 3.16.2)
numpy:  /app/gpaw/software/venv/lib/python3.7/site-packages/numpy (version 1.15.0)
scipy:  /app/gpaw/software/venv/lib/python3.7/site-packages/scipy (version 1.1.0)
units:  Angstrom and eV
cores:  1

Input parameters:
  gpts: [56 48 40]
  maxiter: 150
  mixer: {backend: pulay,
          beta: None,
          method: separate,
          nmaxold: None,
          weight: None}
  xc: PBE

System changes: positions, numbers, cell, pbc, initial_charges, initial_magmoms 

Initialize ...

Hf-setup:
  name: Hafnium
  id: d03a45b6fa1dd7f07e443d1513edf499
  Z: 72
  valence: 12
  core: 60
  charge: 0.0
  file: /app/gpaw/datasets/Hf.PBE
  cutoffs: 1.30(comp), 2.36(filt), 4.02(core), lmax=2
  valence states:
                energy  radius
    5s(2.00)   -66.831   1.397
    6s(2.00)    -5.097   1.397
    5p(6.00)   -35.599   1.307
    6p(0.00)    -1.401   1.307
    5d(2.00)    -2.699   1.334
    *d          24.513   1.334

  Using partial waves for Hf as LCAO basis

N-setup:
  name: Nitrogen
  id: 45c8c9c739e7b131496b9fd2deb94bff
  Z: 7
  valence: 5
  core: 2
  charge: 0.0
  file: /app/gpaw/datasets/N.PBE
  cutoffs: 0.58(comp), 1.11(filt), 0.96(core), lmax=2
  valence states:
                energy  radius
    2s(2.00)   -18.583   0.603
    2p(3.00)    -7.089   0.529
    *s           8.629   0.603
    *p          20.123   0.529
    *d           0.000   0.577

  Using partial waves for N as LCAO basis

C-setup:
  name: Carbon
  id: 2f012631b351e3618121587a96c50fca
  Z: 6
  valence: 4
  core: 2
  charge: 0.0
  file: /app/gpaw/datasets/C.PBE
  cutoffs: 0.64(comp), 1.14(filt), 1.14(core), lmax=2
  valence states:
                energy  radius
    2s(2.00)   -13.751   0.635
    2p(2.00)    -5.285   0.635
    *s          13.461   0.635
    *p          21.927   0.635
    *d           0.000   0.635

  Using partial waves for C as LCAO basis

Reference energy: -412395.464894

Spin-paired calculation

Occupation numbers:
  Fermi-Dirac: width=0.0000 eV

Convergence criteria:
  Maximum total energy change: 0.0005 eV / electron
  Maximum integral of absolute density change: 0.0001 electrons
  Maximum integral of absolute eigenstate change: 4e-08 eV^2
  Maximum number of iterations: 150

Symmetries present (total): 1

  ( 1  0  0)
  ( 0  1  0)
  ( 0  0  1)

1 k-point (Gamma)
1 k-point in the irreducible part of the Brillouin zone
       k-points in crystal coordinates                weights
   0:     0.00000000    0.00000000    0.00000000          1/1

Wave functions: Uniform real-space grid
  Kinetic energy operator: 6*3+1=19 point O(h^6) finite-difference Laplacian
  ScaLapack parameters: grid=1x1, blocksize=None 

Eigensolver
   Davidson(niter=1, smin=None, normalize=True) 

Densities:
  Coarse grid: 56*48*40 grid
  Fine grid: 112*96*80 grid
  Total Charge: 0.000000 

Density mixing:
  Method: separate
  Backend: pulay
  Linear mixing parameter: 0.25
  Mixing with 3 old densities
  No damping of long wave oscillations 

Hamiltonian:
  XC and Coulomb potentials evaluated on a 112*96*80 grid
  Using the PBE Exchange-Correlation functional
  Interpolation: tri-quintic (5. degree polynomial)
  Poisson solver: Jacobi solver with 5 multi-grid levels
    Coarsest grid: 7 x 6 x 5 points
    Stencil: 6*3+1=19 point O(h^6) finite-difference Laplacian
    Max iterations: 1000
    Tolerance: 2.000000e-10 

Memory estimate:
  Process memory now: 248.52 MiB
  Calculator: 111.12 MiB
    Density: 42.40 MiB
      Arrays: 20.61 MiB
      Localized functions: 17.17 MiB
      Mixer: 4.61 MiB
    Hamiltonian: 30.06 MiB
      Arrays: 13.48 MiB
      XC: 0.00 MiB
      Poisson: 15.43 MiB
      vbar: 1.15 MiB
    Wavefunctions: 38.66 MiB
      Arrays psit_nG: 16.15 MiB
      Eigensolver: 20.03 MiB
      Projections: 0.01 MiB
      Projectors: 2.47 MiB

Total number of cores used: 1

Number of atoms: 3
Number of atomic orbitals: 21
Number of bands in calculation: 21
Bands to converge: occupied states only
Number of valence electrons: 21

... initialized

Initializing position-dependent things.

Density initialized from atomic densities
Creating initial wave functions:
  21 bands from LCAO basis set

      .--------------------.  
     /|                    |  
    / |                    |  
   /  |                    |  
  /   |                    |  
 *    |                    |  
 |    |     C   NHf        |  
 |    .--------------------.  
 |   /                    /   
 |  /                    /    
 | /                    /     
 |/                    /      
 *--------------------*       

Positions:
   0 Hf     5.150000    4.475000    3.000000    ( 0.0000,  0.0000,  0.0000)
   1 N      5.150000    3.025000    3.000000    ( 0.0000,  0.0000,  0.0000)
   2 C      3.350000    4.475000    3.000000    ( 0.0000,  0.0000,  0.0000)

Unit cell:
           periodic     x           y           z      points  spacing
  1. axis:    no     8.500000    0.000000    0.000000    56     0.1518
  2. axis:    no     0.000000    7.500000    0.000000    48     0.1562
  3. axis:    no     0.000000    0.000000    6.000000    40     0.1500

  Lengths:   8.500000   7.500000   6.000000
  Angles:   90.000000  90.000000  90.000000

Effective grid spacing dv^(1/3) = 0.1527

                     log10-error:    total        iterations:
           time      wfs    density  energy       fermi  poisson
iter:   1  16:09:17  +2.58   +inf   -14.691189    0      15     
iter:   2  16:09:18  +1.18   +inf   -15.522036    0             
iter:   3  16:09:18  +0.55   +inf   -15.727457    0             
iter:   4  16:09:21  +0.48  -0.68   -11.050385    0      9      
iter:   5  16:09:24  +0.49  -0.90   -10.310510    0      8      
iter:   6  16:09:26  +0.32  -1.06    -9.794781    0      8      
iter:   7  16:09:29  +0.21  -1.34    -9.804318    0      8      
iter:   8  16:09:32  +0.09  -1.60    -9.827735    0      7      
iter:   9  16:09:34  -0.38  -1.95    -9.830342    0      6      
iter:  10  16:09:36  -0.81  -2.50    -9.832876    0      5      
iter:  11  16:09:39  -1.16  -2.65    -9.834554    0      4      
iter:  12  16:09:41  -1.35  -2.79    -9.835245    0      4      
iter:  13  16:09:43  -1.78  -2.99    -9.835656    0      4      
iter:  14  16:09:45  -1.92  -3.18    -9.835881    0      4      
iter:  15  16:09:47  -2.34  -3.34    -9.836006    0      4      
iter:  16  16:09:49  -2.43  -3.47    -9.836079    0      4      
iter:  17  16:09:51  -2.87  -3.75    -9.836113    0      3      
iter:  18  16:09:53  -2.95  -3.84    -9.836144    0      3      
iter:  19  16:09:55  -3.34  -4.05    -9.836204    0      2      
iter:  20  16:09:57  -3.48  -4.19    -9.836228    0      2      
iter:  21  16:09:59  -3.82  -4.34    -9.836224    0      2      
iter:  22  16:10:01  -4.05  -4.41    -9.836223    0      2      
iter:  23  16:10:03  -4.30  -4.52    -9.836218    0      2      
iter:  24  16:10:05  -4.68  -4.66    -9.836214    0      2      
iter:  25  16:10:06  -4.80  -4.88    -9.836259    0      1      
iter:  26  16:10:08  -5.21  -5.02    -9.836183    0      1      
iter:  27  16:10:10  -5.31  -5.12    -9.836179    0      1      
iter:  28  16:10:12  -5.72  -5.39    -9.836128    0      1      
iter:  29  16:10:13  -5.80  -5.51    -9.836135    0      1      
iter:  30  16:10:15  -6.21  -5.72    -9.836135    0      1      
iter:  31  16:10:17  -6.28  -5.93    -9.836155    0      1      
iter:  32  16:10:19  -6.68  -5.92    -9.836153    0      1      
iter:  33  16:10:20  -6.75  -5.88    -9.836151    0      1      
iter:  34  16:10:22  -7.14  -5.74    -9.836156    0      1      
iter:  35  16:10:24  -7.23  -5.79    -9.836159    0      1      
iter:  36  16:10:26  -7.61  -5.92    -9.836159    0      1      

Converged after 36 iterations.

Dipole moment: (0.940765, 0.816741, 0.000000) |e|*Ang

Energy contributions relative to reference atoms: (reference = -412395.464894)

Kinetic:        +84.417574
Potential:      -67.102327
External:        +0.000000
XC:             -27.635364
Entropy (-ST):   +0.000000
Local:           +0.483957
--------------------------
Free energy:     -9.836159
Extrapolated:    -9.836159

Fermi level: -4.24302

 Band  Eigenvalues  Occupancy
    0    -64.07081    2.00000
    1    -35.23976    2.00000
    2    -33.36509    2.00000
    3    -33.10406    2.00000
    4    -14.78014    2.00000
    5    -11.98154    2.00000
    6     -7.86783    2.00000
    7     -7.11776    2.00000
    8     -5.48238    2.00000
    9     -4.67557    2.00000
   10     -4.24302    1.00000
   11     -2.99112    0.00000
   12     -2.00364    0.00000
   13     -0.03986    0.00000
   14      0.37863    0.00000
   15      2.22520    0.00000
   16      2.67847    0.00000
   17      2.81448    0.00000
   18      4.39200    0.00000
   19      4.62383    0.00000
   20      5.07521    0.00000

Writing to 3_38249_Pm_PBE_yy1_8000.gpw (mode='all')

Timing:                              incl.     excl.
-----------------------------------------------------------
Hamiltonian:                         2.955     0.000   0.0% |
 Atomic:                             0.197     0.001   0.0% |
  XC Correction:                     0.196     0.196   0.3% |
 Calculate atomic Hamiltonians:      0.005     0.005   0.0% |
 Communicate:                        0.000     0.000   0.0% |
 Hartree integrate/restrict:         0.011     0.011   0.0% |
 Initialize Hamiltonian:             0.000     0.000   0.0% |
 Poisson:                            2.039     2.039   2.8% ||
 XC 3D grid:                         0.701     0.701   0.9% |
 vbar:                               0.003     0.003   0.0% |
LCAO initialization:                 0.656     0.549   0.7% |
 LCAO eigensolver:                   0.034     0.000   0.0% |
  Calculate projections:             0.000     0.000   0.0% |
  DenseAtomicCorrection:             0.000     0.000   0.0% |
  Distribute overlap matrix:         0.000     0.000   0.0% |
  Orbital Layouts:                   0.000     0.000   0.0% |
  Potential matrix:                  0.033     0.033   0.0% |
 LCAO to grid:                       0.069     0.069   0.1% |
 Set positions (LCAO WFS):           0.004     0.000   0.0% |
  Basic WFS set positions:           0.000     0.000   0.0% |
  Basis functions set positions:     0.000     0.000   0.0% |
  TCI: Calculate S, T, P:            0.003     0.003   0.0% |
SCF-cycle:                          69.382     0.015   0.0% |
 Davidson:                          23.763     4.717   6.4% |--|
  Apply hamiltonian:                 1.838     1.838   2.5% ||
  Subspace diag:                     6.622     0.004   0.0% |
   calc_h_matrix:                    3.249     1.412   1.9% ||
    Apply hamiltonian:               1.838     1.838   2.5% ||
   diagonalize:                      0.008     0.008   0.0% |
   rotate_psi:                       3.361     3.361   4.5% |-|
  calc. matrices:                    7.226     5.389   7.3% |--|
   Apply hamiltonian:                1.838     1.838   2.5% ||
  diagonalize:                       0.028     0.028   0.0% |
  rotate_psi:                        3.331     3.331   4.5% |-|
 Density:                            0.881     0.001   0.0% |
  Atomic density matrices:           0.023     0.023   0.0% |
  Mix:                               0.617     0.617   0.8% |
  Multipole moments:                 0.006     0.006   0.0% |
  Pseudo density:                    0.235     0.234   0.3% |
   Symmetrize density:               0.001     0.001   0.0% |
 Hamiltonian:                       44.658     0.004   0.0% |
  Atomic:                            6.515     0.029   0.0% |
   XC Correction:                    6.486     6.486   8.8% |---|
  Calculate atomic Hamiltonians:     0.153     0.153   0.2% |
  Communicate:                       0.000     0.000   0.0% |
  Hartree integrate/restrict:        0.361     0.361   0.5% |
  Poisson:                          14.373    14.373  19.4% |-------|
  XC 3D grid:                       23.187    23.187  31.4% |------------|
  vbar:                              0.064     0.064   0.1% |
 Orthonormalize:                     0.065     0.000   0.0% |
  calc_s_matrix:                     0.022     0.022   0.0% |
  inverse-cholesky:                  0.000     0.000   0.0% |
  projections:                       0.015     0.015   0.0% |
  rotate_psi_s:                      0.028     0.028   0.0% |
Set symmetry:                        0.001     0.001   0.0% |
Other:                               0.925     0.925   1.3% ||
-----------------------------------------------------------
Total:                                        73.919 100.0%

Memory usage: 248.52 MiB
Date: Mon Aug 20 16:10:26 2018
