
  ___ ___ ___ _ _ _  
 |   |   |_  | | | | 
 | | | | | . | | | | 
 |__ |  _|___|_____|  1.4.0
 |___|_|             

User:   ???@3fe09ff0504a
Date:   Mon Aug 20 15:03:35 2018
Arch:   x86_64
Pid:    254
Python: 3.7.0
gpaw:   /app/gpaw/software/venv/lib/python3.7/site-packages/gpaw
_gpaw:  /app/gpaw/software/venv/lib/python3.7/site-packages/
        _gpaw.cpython-37m-x86_64-linux-gnu.so
ase:    /app/gpaw/software/venv/lib/python3.7/site-packages/ase (version 3.16.2)
numpy:  /app/gpaw/software/venv/lib/python3.7/site-packages/numpy (version 1.15.0)
scipy:  /app/gpaw/software/venv/lib/python3.7/site-packages/scipy (version 1.1.0)
units:  Angstrom and eV
cores:  1

Input parameters:
  gpts: [56 48 40]
  maxiter: 150
  mixer: {backend: pulay,
          beta: None,
          method: separate,
          nmaxold: None,
          weight: None}
  xc: PBE

System changes: positions, numbers, cell, pbc, initial_charges, initial_magmoms 

Initialize ...

Hf-setup:
  name: Hafnium
  id: d03a45b6fa1dd7f07e443d1513edf499
  Z: 72
  valence: 12
  core: 60
  charge: 0.0
  file: /app/gpaw/datasets/Hf.PBE
  cutoffs: 1.30(comp), 2.36(filt), 4.02(core), lmax=2
  valence states:
                energy  radius
    5s(2.00)   -66.831   1.397
    6s(2.00)    -5.097   1.397
    5p(6.00)   -35.599   1.307
    6p(0.00)    -1.401   1.307
    5d(2.00)    -2.699   1.334
    *d          24.513   1.334

  Using partial waves for Hf as LCAO basis

N-setup:
  name: Nitrogen
  id: 45c8c9c739e7b131496b9fd2deb94bff
  Z: 7
  valence: 5
  core: 2
  charge: 0.0
  file: /app/gpaw/datasets/N.PBE
  cutoffs: 0.58(comp), 1.11(filt), 0.96(core), lmax=2
  valence states:
                energy  radius
    2s(2.00)   -18.583   0.603
    2p(3.00)    -7.089   0.529
    *s           8.629   0.603
    *p          20.123   0.529
    *d           0.000   0.577

  Using partial waves for N as LCAO basis

C-setup:
  name: Carbon
  id: 2f012631b351e3618121587a96c50fca
  Z: 6
  valence: 4
  core: 2
  charge: 0.0
  file: /app/gpaw/datasets/C.PBE
  cutoffs: 0.64(comp), 1.14(filt), 1.14(core), lmax=2
  valence states:
                energy  radius
    2s(2.00)   -13.751   0.635
    2p(2.00)    -5.285   0.635
    *s          13.461   0.635
    *p          21.927   0.635
    *d           0.000   0.635

  Using partial waves for C as LCAO basis

Reference energy: -412395.464894

Spin-paired calculation

Occupation numbers:
  Fermi-Dirac: width=0.0000 eV

Convergence criteria:
  Maximum total energy change: 0.0005 eV / electron
  Maximum integral of absolute density change: 0.0001 electrons
  Maximum integral of absolute eigenstate change: 4e-08 eV^2
  Maximum number of iterations: 150

Symmetries present (total): 1

  ( 1  0  0)
  ( 0  1  0)
  ( 0  0  1)

1 k-point (Gamma)
1 k-point in the irreducible part of the Brillouin zone
       k-points in crystal coordinates                weights
   0:     0.00000000    0.00000000    0.00000000          1/1

Wave functions: Uniform real-space grid
  Kinetic energy operator: 6*3+1=19 point O(h^6) finite-difference Laplacian
  ScaLapack parameters: grid=1x1, blocksize=None 

Eigensolver
   Davidson(niter=1, smin=None, normalize=True) 

Densities:
  Coarse grid: 56*48*40 grid
  Fine grid: 112*96*80 grid
  Total Charge: 0.000000 

Density mixing:
  Method: separate
  Backend: pulay
  Linear mixing parameter: 0.25
  Mixing with 3 old densities
  No damping of long wave oscillations 

Hamiltonian:
  XC and Coulomb potentials evaluated on a 112*96*80 grid
  Using the PBE Exchange-Correlation functional
  Interpolation: tri-quintic (5. degree polynomial)
  Poisson solver: Jacobi solver with 5 multi-grid levels
    Coarsest grid: 7 x 6 x 5 points
    Stencil: 6*3+1=19 point O(h^6) finite-difference Laplacian
    Max iterations: 1000
    Tolerance: 2.000000e-10 

Memory estimate:
  Process memory now: 240.15 MiB
  Calculator: 111.12 MiB
    Density: 42.40 MiB
      Arrays: 20.61 MiB
      Localized functions: 17.17 MiB
      Mixer: 4.61 MiB
    Hamiltonian: 30.06 MiB
      Arrays: 13.48 MiB
      XC: 0.00 MiB
      Poisson: 15.43 MiB
      vbar: 1.15 MiB
    Wavefunctions: 38.66 MiB
      Arrays psit_nG: 16.15 MiB
      Eigensolver: 20.03 MiB
      Projections: 0.01 MiB
      Projectors: 2.47 MiB

Total number of cores used: 1

Number of atoms: 3
Number of atomic orbitals: 21
Number of bands in calculation: 21
Bands to converge: occupied states only
Number of valence electrons: 21

... initialized

Initializing position-dependent things.

Density initialized from atomic densities
Creating initial wave functions:
  21 bands from LCAO basis set

      .--------------------.  
     /|                    |  
    / |                    |  
   /  |                    |  
  /   |                    |  
 *    |                    |  
 |    |    NHf   C         |  
 |    .--------------------.  
 |   /                    /   
 |  /                    /    
 | /                    /     
 |/                    /      
 *--------------------*       

Positions:
   0 Hf     3.400000    4.425000    3.000000    ( 0.0000,  0.0000,  0.0000)
   1 N      3.400000    3.075000    3.000000    ( 0.0000,  0.0000,  0.0000)
   2 C      5.100000    4.425000    3.000000    ( 0.0000,  0.0000,  0.0000)

Unit cell:
           periodic     x           y           z      points  spacing
  1. axis:    no     8.500000    0.000000    0.000000    56     0.1518
  2. axis:    no     0.000000    7.500000    0.000000    48     0.1562
  3. axis:    no     0.000000    0.000000    6.000000    40     0.1500

  Lengths:   8.500000   7.500000   6.000000
  Angles:   90.000000  90.000000  90.000000

Effective grid spacing dv^(1/3) = 0.1527

                     log10-error:    total        iterations:
           time      wfs    density  energy       fermi  poisson
iter:   1  15:03:40  +2.58   +inf    -9.273600    0      15     
iter:   2  15:03:41  +1.26   +inf   -10.281111    0             
iter:   3  15:03:42  +0.64   +inf   -10.520427    0             
iter:   4  15:03:45  +0.51  -0.69    -5.723795    0      9      
iter:   5  15:03:47  +0.41  -0.92    -4.845836    0      8      
iter:   6  15:03:50  +0.38  -1.12    -4.532724    0      8      
iter:   7  15:03:53  +0.23  -1.39    -4.569030    0      7      
iter:   8  15:03:55  +0.02  -1.59    -4.600795    0      7      
iter:   9  15:03:58  -0.40  -1.91    -4.610018    0      6      
iter:  10  15:04:00  -0.62  -2.17    -4.611734    0      5      
iter:  11  15:04:02  -1.14  -2.35    -4.611791    0      5      
iter:  12  15:04:04  -1.36  -2.56    -4.611790    0      5      
iter:  13  15:04:07  -1.86  -2.72    -4.611901    0      5      
iter:  14  15:04:09  -1.95  -2.91    -4.612003    0      4      
iter:  15  15:04:11  -2.47  -3.02    -4.612058    0      4      
iter:  16  15:04:13  -2.52  -3.27    -4.612041    0      3      
iter:  17  15:04:15  -3.04  -3.44    -4.612079    0      4      
iter:  18  15:04:17  -3.03  -3.82    -4.612085    0      3      
iter:  19  15:04:19  -3.52  -4.04    -4.612142    0      2      
iter:  20  15:04:21  -3.54  -4.16    -4.612169    0      2      
iter:  21  15:04:23  -4.03  -4.32    -4.612198    0      2      
iter:  22  15:04:25  -4.10  -4.49    -4.612151    0      2      
iter:  23  15:04:26  -4.52  -4.63    -4.612272    0      1      
iter:  24  15:04:28  -4.62  -4.68    -4.612140    0      2      
iter:  25  15:04:30  -5.01  -4.88    -4.612134    0      2      
iter:  26  15:04:32  -5.17  -5.23    -4.612057    0      1      
iter:  27  15:04:34  -5.50  -5.29    -4.612106    0      1      
iter:  28  15:04:35  -5.65  -5.59    -4.612082    0      1      
iter:  29  15:04:37  -5.98  -5.71    -4.612100    0      1      
iter:  30  15:04:39  -6.14  -5.78    -4.612108    0      1      
iter:  31  15:04:41  -6.45  -5.79    -4.612118    0      1      
iter:  32  15:04:42  -6.61  -5.72    -4.612093    0      1      
iter:  33  15:04:44  -6.89  -5.49    -4.612126    0      1      
iter:  34  15:04:46  -7.09  -5.69    -4.612125    0      1      
iter:  35  15:04:48  -7.38  -6.00    -4.612117    0      1      
iter:  36  15:04:49  -7.59  -6.25    -4.612105    0      1      

Converged after 36 iterations.

Dipole moment: (-0.895080, 0.596022, 0.000000) |e|*Ang

Energy contributions relative to reference atoms: (reference = -412395.464894)

Kinetic:       +124.799425
Potential:      -97.691164
External:        +0.000000
XC:             -32.597584
Entropy (-ST):   +0.000000
Local:           +0.877218
--------------------------
Free energy:     -4.612105
Extrapolated:    -4.612105

Fermi level: -3.88119

 Band  Eigenvalues  Occupancy
    0    -64.23549    2.00000
    1    -36.31189    2.00000
    2    -33.54436    2.00000
    3    -32.93666    2.00000
    4    -14.42161    2.00000
    5    -11.73253    2.00000
    6     -8.84807    2.00000
    7     -7.99042    2.00000
    8     -5.54468    2.00000
    9     -4.91366    2.00000
   10     -3.88119    1.00000
   11     -2.76791    0.00000
   12     -1.82433    0.00000
   13      0.21370    0.00000
   14      0.75810    0.00000
   15      2.86512    0.00000
   16      2.89282    0.00000
   17      3.13632    0.00000
   18      4.28818    0.00000
   19      5.05088    0.00000
   20      5.50724    0.00000

Writing to 3_38249_Pm_PBE_xx1_3500000000000003.gpw (mode='all')

Timing:                              incl.     excl.
-----------------------------------------------------------
Hamiltonian:                         2.963     0.000   0.0% |
 Atomic:                             0.197     0.001   0.0% |
  XC Correction:                     0.196     0.196   0.3% |
 Calculate atomic Hamiltonians:      0.005     0.005   0.0% |
 Communicate:                        0.000     0.000   0.0% |
 Hartree integrate/restrict:         0.011     0.011   0.0% |
 Initialize Hamiltonian:             0.000     0.000   0.0% |
 Poisson:                            2.040     2.040   2.8% ||
 XC 3D grid:                         0.707     0.707   1.0% |
 vbar:                               0.004     0.004   0.0% |
LCAO initialization:                 0.657     0.550   0.7% |
 LCAO eigensolver:                   0.034     0.000   0.0% |
  Calculate projections:             0.000     0.000   0.0% |
  DenseAtomicCorrection:             0.000     0.000   0.0% |
  Distribute overlap matrix:         0.000     0.000   0.0% |
  Orbital Layouts:                   0.000     0.000   0.0% |
  Potential matrix:                  0.033     0.033   0.0% |
 LCAO to grid:                       0.070     0.070   0.1% |
 Set positions (LCAO WFS):           0.004     0.000   0.0% |
  Basic WFS set positions:           0.000     0.000   0.0% |
  Basis functions set positions:     0.000     0.000   0.0% |
  TCI: Calculate S, T, P:            0.003     0.003   0.0% |
SCF-cycle:                          69.605     0.015   0.0% |
 Davidson:                          23.739     4.685   6.3% |--|
  Apply hamiltonian:                 1.845     1.845   2.5% ||
  Subspace diag:                     6.618     0.004   0.0% |
   calc_h_matrix:                    3.243     1.404   1.9% ||
    Apply hamiltonian:               1.839     1.839   2.5% ||
   diagonalize:                      0.008     0.008   0.0% |
   rotate_psi:                       3.363     3.363   4.5% |-|
  calc. matrices:                    7.223     5.381   7.3% |--|
   Apply hamiltonian:                1.842     1.842   2.5% ||
  diagonalize:                       0.028     0.028   0.0% |
  rotate_psi:                        3.340     3.340   4.5% |-|
 Density:                            0.896     0.001   0.0% |
  Atomic density matrices:           0.023     0.023   0.0% |
  Mix:                               0.628     0.628   0.8% |
  Multipole moments:                 0.006     0.006   0.0% |
  Pseudo density:                    0.238     0.237   0.3% |
   Symmetrize density:               0.001     0.001   0.0% |
 Hamiltonian:                       44.890     0.004   0.0% |
  Atomic:                            6.512     0.029   0.0% |
   XC Correction:                    6.483     6.483   8.7% |--|
  Calculate atomic Hamiltonians:     0.153     0.153   0.2% |
  Communicate:                       0.000     0.000   0.0% |
  Hartree integrate/restrict:        0.363     0.363   0.5% |
  Poisson:                          14.584    14.584  19.7% |-------|
  XC 3D grid:                       23.209    23.209  31.3% |------------|
  vbar:                              0.064     0.064   0.1% |
 Orthonormalize:                     0.066     0.000   0.0% |
  calc_s_matrix:                     0.022     0.022   0.0% |
  inverse-cholesky:                  0.000     0.000   0.0% |
  projections:                       0.015     0.015   0.0% |
  rotate_psi_s:                      0.029     0.029   0.0% |
Set symmetry:                        0.001     0.001   0.0% |
Other:                               0.927     0.927   1.2% |
-----------------------------------------------------------
Total:                                        74.154 100.0%

Memory usage: 240.61 MiB
Date: Mon Aug 20 15:04:49 2018
