
  ___ ___ ___ _ _ _  
 |   |   |_  | | | | 
 | | | | | . | | | | 
 |__ |  _|___|_____|  1.4.0
 |___|_|             

User:   ???@3fe09ff0504a
Date:   Mon Aug 20 15:59:04 2018
Arch:   x86_64
Pid:    566
Python: 3.7.0
gpaw:   /app/gpaw/software/venv/lib/python3.7/site-packages/gpaw
_gpaw:  /app/gpaw/software/venv/lib/python3.7/site-packages/
        _gpaw.cpython-37m-x86_64-linux-gnu.so
ase:    /app/gpaw/software/venv/lib/python3.7/site-packages/ase (version 3.16.2)
numpy:  /app/gpaw/software/venv/lib/python3.7/site-packages/numpy (version 1.15.0)
scipy:  /app/gpaw/software/venv/lib/python3.7/site-packages/scipy (version 1.1.0)
units:  Angstrom and eV
cores:  1

Input parameters:
  gpts: [56 48 40]
  maxiter: 150
  mixer: {backend: pulay,
          beta: None,
          method: separate,
          nmaxold: None,
          weight: None}
  xc: PBE

System changes: positions, numbers, cell, pbc, initial_charges, initial_magmoms 

Initialize ...

Hf-setup:
  name: Hafnium
  id: d03a45b6fa1dd7f07e443d1513edf499
  Z: 72
  valence: 12
  core: 60
  charge: 0.0
  file: /app/gpaw/datasets/Hf.PBE
  cutoffs: 1.30(comp), 2.36(filt), 4.02(core), lmax=2
  valence states:
                energy  radius
    5s(2.00)   -66.831   1.397
    6s(2.00)    -5.097   1.397
    5p(6.00)   -35.599   1.307
    6p(0.00)    -1.401   1.307
    5d(2.00)    -2.699   1.334
    *d          24.513   1.334

  Using partial waves for Hf as LCAO basis

N-setup:
  name: Nitrogen
  id: 45c8c9c739e7b131496b9fd2deb94bff
  Z: 7
  valence: 5
  core: 2
  charge: 0.0
  file: /app/gpaw/datasets/N.PBE
  cutoffs: 0.58(comp), 1.11(filt), 0.96(core), lmax=2
  valence states:
                energy  radius
    2s(2.00)   -18.583   0.603
    2p(3.00)    -7.089   0.529
    *s           8.629   0.603
    *p          20.123   0.529
    *d           0.000   0.577

  Using partial waves for N as LCAO basis

C-setup:
  name: Carbon
  id: 2f012631b351e3618121587a96c50fca
  Z: 6
  valence: 4
  core: 2
  charge: 0.0
  file: /app/gpaw/datasets/C.PBE
  cutoffs: 0.64(comp), 1.14(filt), 1.14(core), lmax=2
  valence states:
                energy  radius
    2s(2.00)   -13.751   0.635
    2p(2.00)    -5.285   0.635
    *s          13.461   0.635
    *p          21.927   0.635
    *d           0.000   0.635

  Using partial waves for C as LCAO basis

Reference energy: -412395.464894

Spin-paired calculation

Occupation numbers:
  Fermi-Dirac: width=0.0000 eV

Convergence criteria:
  Maximum total energy change: 0.0005 eV / electron
  Maximum integral of absolute density change: 0.0001 electrons
  Maximum integral of absolute eigenstate change: 4e-08 eV^2
  Maximum number of iterations: 150

Symmetries present (total): 1

  ( 1  0  0)
  ( 0  1  0)
  ( 0  0  1)

1 k-point (Gamma)
1 k-point in the irreducible part of the Brillouin zone
       k-points in crystal coordinates                weights
   0:     0.00000000    0.00000000    0.00000000          1/1

Wave functions: Uniform real-space grid
  Kinetic energy operator: 6*3+1=19 point O(h^6) finite-difference Laplacian
  ScaLapack parameters: grid=1x1, blocksize=None 

Eigensolver
   Davidson(niter=1, smin=None, normalize=True) 

Densities:
  Coarse grid: 56*48*40 grid
  Fine grid: 112*96*80 grid
  Total Charge: 0.000000 

Density mixing:
  Method: separate
  Backend: pulay
  Linear mixing parameter: 0.25
  Mixing with 3 old densities
  No damping of long wave oscillations 

Hamiltonian:
  XC and Coulomb potentials evaluated on a 112*96*80 grid
  Using the PBE Exchange-Correlation functional
  Interpolation: tri-quintic (5. degree polynomial)
  Poisson solver: Jacobi solver with 5 multi-grid levels
    Coarsest grid: 7 x 6 x 5 points
    Stencil: 6*3+1=19 point O(h^6) finite-difference Laplacian
    Max iterations: 1000
    Tolerance: 2.000000e-10 

Memory estimate:
  Process memory now: 41.53 MiB
  Calculator: 111.12 MiB
    Density: 42.40 MiB
      Arrays: 20.61 MiB
      Localized functions: 17.17 MiB
      Mixer: 4.61 MiB
    Hamiltonian: 30.06 MiB
      Arrays: 13.48 MiB
      XC: 0.00 MiB
      Poisson: 15.43 MiB
      vbar: 1.15 MiB
    Wavefunctions: 38.66 MiB
      Arrays psit_nG: 16.15 MiB
      Eigensolver: 20.03 MiB
      Projections: 0.01 MiB
      Projectors: 2.47 MiB

Total number of cores used: 1

Number of atoms: 3
Number of atomic orbitals: 21
Number of bands in calculation: 21
Bands to converge: occupied states only
Number of valence electrons: 21

... initialized

Initializing position-dependent things.

Density initialized from atomic densities
Creating initial wave functions:
  21 bands from LCAO basis set

      .--------------------.  
     /|                    |  
    / |                    |  
   /  |                    |  
  /   |                    |  
 *    |                    |  
 |    |      C NHf         |  
 |    .--------------------.  
 |   /                    /   
 |  /                    /    
 | /                    /     
 |/                    /      
 *--------------------*       

Positions:
   0 Hf     4.950000    4.475000    3.000000    ( 0.0000,  0.0000,  0.0000)
   1 N      4.950000    3.025000    3.000000    ( 0.0000,  0.0000,  0.0000)
   2 C      3.550000    4.475000    3.000000    ( 0.0000,  0.0000,  0.0000)

Unit cell:
           periodic     x           y           z      points  spacing
  1. axis:    no     8.500000    0.000000    0.000000    56     0.1518
  2. axis:    no     0.000000    7.500000    0.000000    48     0.1562
  3. axis:    no     0.000000    0.000000    6.000000    40     0.1500

  Lengths:   8.500000   7.500000   6.000000
  Angles:   90.000000  90.000000  90.000000

Effective grid spacing dv^(1/3) = 0.1527

                     log10-error:    total        iterations:
           time      wfs    density  energy       fermi  poisson
iter:   1  15:59:09  +2.60   +inf    -6.863118    0      15     
iter:   2  15:59:10  +1.34   +inf    -8.055197    0             
iter:   3  15:59:10  +0.70   +inf    -8.316050    0             
iter:   4  15:59:13  +0.54  -0.68    -3.666845    0      9      
iter:   5  15:59:16  +0.47  -0.92    -2.601118    0      8      
iter:   6  15:59:19  +0.33  -1.12    -2.300170    0      8      
iter:   7  15:59:21  +0.36  -1.40    -2.358970    0      7      
iter:   8  15:59:24  +0.03  -1.61    -2.391958    0      7      
iter:   9  15:59:26  -0.35  -1.92    -2.401031    0      6      
iter:  10  15:59:28  -0.66  -2.24    -2.403428    0      5      
iter:  11  15:59:31  -1.08  -2.40    -2.404115    0      5      
iter:  12  15:59:33  -1.37  -2.59    -2.404378    0      5      
iter:  13  15:59:35  -1.76  -2.76    -2.404549    0      5      
iter:  14  15:59:37  -1.97  -3.06    -2.404693    0      4      
iter:  15  15:59:40  -2.36  -3.29    -2.404792    0      4      
iter:  16  15:59:42  -2.49  -3.50    -2.404828    0      3      
iter:  17  15:59:44  -2.89  -3.65    -2.404858    0      3      
iter:  18  15:59:46  -3.03  -3.95    -2.404874    0      3      
iter:  19  15:59:47  -3.38  -4.14    -2.404915    0      2      
iter:  20  15:59:49  -3.49  -4.19    -2.404938    0      2      
iter:  21  15:59:51  -3.86  -4.34    -2.404940    0      2      
iter:  22  15:59:53  -3.97  -4.41    -2.404952    0      2      
iter:  23  15:59:55  -4.34  -4.64    -2.404939    0      2      
iter:  24  15:59:57  -4.44  -4.86    -2.404920    0      1      
iter:  25  15:59:59  -4.80  -5.00    -2.404908    0      2      
iter:  26  16:00:00  -4.89  -5.23    -2.404891    0      1      
iter:  27  16:00:02  -5.26  -5.38    -2.404894    0      1      
iter:  28  16:00:04  -5.34  -5.50    -2.404899    0      1      
iter:  29  16:00:06  -5.71  -5.58    -2.404911    0      1      
iter:  30  16:00:07  -5.78  -5.64    -2.404909    0      1      
iter:  31  16:00:09  -6.15  -5.79    -2.404912    0      1      
iter:  32  16:00:11  -6.21  -5.86    -2.404912    0      1      
iter:  33  16:00:13  -6.59  -6.19    -2.404900    0      1      
iter:  34  16:00:14  -6.64  -6.06    -2.404906    0      1      
iter:  35  16:00:16  -7.03  -6.39    -2.404900    0      1      
iter:  36  16:00:18  -7.07  -6.53    -2.404900    0      1      
iter:  37  16:00:20  -7.46  -6.61    -2.404900    0      1      

Converged after 37 iterations.

Dipole moment: (0.555714, 0.684593, 0.000000) |e|*Ang

Energy contributions relative to reference atoms: (reference = -412395.464894)

Kinetic:       +143.478499
Potential:     -110.841495
External:        +0.000000
XC:             -35.854155
Entropy (-ST):   +0.000000
Local:           +0.812251
--------------------------
Free energy:     -2.404900
Extrapolated:    -2.404900

Fermi level: -3.49586

 Band  Eigenvalues  Occupancy
    0    -64.27975    2.00000
    1    -35.52924    2.00000
    2    -35.12108    2.00000
    3    -32.83542    2.00000
    4    -15.08200    2.00000
    5    -10.69787    2.00000
    6     -9.28054    2.00000
    7     -7.27650    2.00000
    8     -6.40674    2.00000
    9     -5.86187    2.00000
   10     -3.49586    1.00000
   11     -2.60756    0.00000
   12     -1.73359    0.00000
   13      0.44798    0.00000
   14      1.56802    0.00000
   15      2.67437    0.00000
   16      3.16059    0.00000
   17      3.49996    0.00000
   18      4.22882    0.00000
   19      4.86717    0.00000
   20      6.06429    0.00000

Writing to 3_38249_Pm_PBE_yy1_4.gpw (mode='all')

Timing:                              incl.     excl.
-----------------------------------------------------------
Hamiltonian:                         2.951     0.000   0.0% |
 Atomic:                             0.196     0.001   0.0% |
  XC Correction:                     0.195     0.195   0.3% |
 Calculate atomic Hamiltonians:      0.005     0.005   0.0% |
 Communicate:                        0.000     0.000   0.0% |
 Hartree integrate/restrict:         0.011     0.011   0.0% |
 Initialize Hamiltonian:             0.000     0.000   0.0% |
 Poisson:                            2.033     2.033   2.7% ||
 XC 3D grid:                         0.702     0.702   0.9% |
 vbar:                               0.003     0.003   0.0% |
LCAO initialization:                 0.690     0.580   0.8% |
 LCAO eigensolver:                   0.035     0.000   0.0% |
  Calculate projections:             0.000     0.000   0.0% |
  DenseAtomicCorrection:             0.000     0.000   0.0% |
  Distribute overlap matrix:         0.000     0.000   0.0% |
  Orbital Layouts:                   0.000     0.000   0.0% |
  Potential matrix:                  0.034     0.034   0.0% |
 LCAO to grid:                       0.071     0.071   0.1% |
 Set positions (LCAO WFS):           0.004     0.000   0.0% |
  Basic WFS set positions:           0.000     0.000   0.0% |
  Basis functions set positions:     0.000     0.000   0.0% |
  TCI: Calculate S, T, P:            0.004     0.004   0.0% |
SCF-cycle:                          71.100     0.015   0.0% |
 Davidson:                          24.271     4.717   6.2% |-|
  Apply hamiltonian:                 1.890     1.890   2.5% ||
  Subspace diag:                     6.791     0.004   0.0% |
   calc_h_matrix:                    3.329     1.441   1.9% ||
    Apply hamiltonian:               1.888     1.888   2.5% ||
   diagonalize:                      0.008     0.008   0.0% |
   rotate_psi:                       3.451     3.451   4.6% |-|
  calc. matrices:                    7.404     5.514   7.3% |--|
   Apply hamiltonian:                1.890     1.890   2.5% ||
  diagonalize:                       0.029     0.029   0.0% |
  rotate_psi:                        3.440     3.440   4.5% |-|
 Density:                            0.916     0.001   0.0% |
  Atomic density matrices:           0.023     0.023   0.0% |
  Mix:                               0.641     0.641   0.8% |
  Multipole moments:                 0.006     0.006   0.0% |
  Pseudo density:                    0.245     0.245   0.3% |
   Symmetrize density:               0.001     0.001   0.0% |
 Hamiltonian:                       45.832     0.004   0.0% |
  Atomic:                            6.684     0.030   0.0% |
   XC Correction:                    6.654     6.654   8.8% |---|
  Calculate atomic Hamiltonians:     0.159     0.159   0.2% |
  Communicate:                       0.000     0.000   0.0% |
  Hartree integrate/restrict:        0.372     0.372   0.5% |
  Poisson:                          14.626    14.626  19.3% |-------|
  XC 3D grid:                       23.920    23.920  31.6% |------------|
  vbar:                              0.067     0.067   0.1% |
 Orthonormalize:                     0.065     0.000   0.0% |
  calc_s_matrix:                     0.022     0.022   0.0% |
  inverse-cholesky:                  0.000     0.000   0.0% |
  projections:                       0.015     0.015   0.0% |
  rotate_psi_s:                      0.028     0.028   0.0% |
Set symmetry:                        0.001     0.001   0.0% |
Other:                               1.063     1.063   1.4% ||
-----------------------------------------------------------
Total:                                        75.804 100.0%

Memory usage: 230.43 MiB
Date: Mon Aug 20 16:00:20 2018
