
  ___ ___ ___ _ _ _  
 |   |   |_  | | | | 
 | | | | | . | | | | 
 |__ |  _|___|_____|  1.4.0
 |___|_|             

User:   ???@3fe09ff0504a
Date:   Mon Aug 20 15:08:35 2018
Arch:   x86_64
Pid:    254
Python: 3.7.0
gpaw:   /app/gpaw/software/venv/lib/python3.7/site-packages/gpaw
_gpaw:  /app/gpaw/software/venv/lib/python3.7/site-packages/
        _gpaw.cpython-37m-x86_64-linux-gnu.so
ase:    /app/gpaw/software/venv/lib/python3.7/site-packages/ase (version 3.16.2)
numpy:  /app/gpaw/software/venv/lib/python3.7/site-packages/numpy (version 1.15.0)
scipy:  /app/gpaw/software/venv/lib/python3.7/site-packages/scipy (version 1.1.0)
units:  Angstrom and eV
cores:  1

Input parameters:
  gpts: [56 48 40]
  maxiter: 150
  mixer: {backend: pulay,
          beta: None,
          method: separate,
          nmaxold: None,
          weight: None}
  xc: PBE

System changes: positions, numbers, cell, pbc, initial_charges, initial_magmoms 

Initialize ...

Hf-setup:
  name: Hafnium
  id: d03a45b6fa1dd7f07e443d1513edf499
  Z: 72
  valence: 12
  core: 60
  charge: 0.0
  file: /app/gpaw/datasets/Hf.PBE
  cutoffs: 1.30(comp), 2.36(filt), 4.02(core), lmax=2
  valence states:
                energy  radius
    5s(2.00)   -66.831   1.397
    6s(2.00)    -5.097   1.397
    5p(6.00)   -35.599   1.307
    6p(0.00)    -1.401   1.307
    5d(2.00)    -2.699   1.334
    *d          24.513   1.334

  Using partial waves for Hf as LCAO basis

N-setup:
  name: Nitrogen
  id: 45c8c9c739e7b131496b9fd2deb94bff
  Z: 7
  valence: 5
  core: 2
  charge: 0.0
  file: /app/gpaw/datasets/N.PBE
  cutoffs: 0.58(comp), 1.11(filt), 0.96(core), lmax=2
  valence states:
                energy  radius
    2s(2.00)   -18.583   0.603
    2p(3.00)    -7.089   0.529
    *s           8.629   0.603
    *p          20.123   0.529
    *d           0.000   0.577

  Using partial waves for N as LCAO basis

C-setup:
  name: Carbon
  id: 2f012631b351e3618121587a96c50fca
  Z: 6
  valence: 4
  core: 2
  charge: 0.0
  file: /app/gpaw/datasets/C.PBE
  cutoffs: 0.64(comp), 1.14(filt), 1.14(core), lmax=2
  valence states:
                energy  radius
    2s(2.00)   -13.751   0.635
    2p(2.00)    -5.285   0.635
    *s          13.461   0.635
    *p          21.927   0.635
    *d           0.000   0.635

  Using partial waves for C as LCAO basis

Reference energy: -412395.464894

Spin-paired calculation

Occupation numbers:
  Fermi-Dirac: width=0.0000 eV

Convergence criteria:
  Maximum total energy change: 0.0005 eV / electron
  Maximum integral of absolute density change: 0.0001 electrons
  Maximum integral of absolute eigenstate change: 4e-08 eV^2
  Maximum number of iterations: 150

Symmetries present (total): 1

  ( 1  0  0)
  ( 0  1  0)
  ( 0  0  1)

1 k-point (Gamma)
1 k-point in the irreducible part of the Brillouin zone
       k-points in crystal coordinates                weights
   0:     0.00000000    0.00000000    0.00000000          1/1

Wave functions: Uniform real-space grid
  Kinetic energy operator: 6*3+1=19 point O(h^6) finite-difference Laplacian
  ScaLapack parameters: grid=1x1, blocksize=None 

Eigensolver
   Davidson(niter=1, smin=None, normalize=True) 

Densities:
  Coarse grid: 56*48*40 grid
  Fine grid: 112*96*80 grid
  Total Charge: 0.000000 

Density mixing:
  Method: separate
  Backend: pulay
  Linear mixing parameter: 0.25
  Mixing with 3 old densities
  No damping of long wave oscillations 

Hamiltonian:
  XC and Coulomb potentials evaluated on a 112*96*80 grid
  Using the PBE Exchange-Correlation functional
  Interpolation: tri-quintic (5. degree polynomial)
  Poisson solver: Jacobi solver with 5 multi-grid levels
    Coarsest grid: 7 x 6 x 5 points
    Stencil: 6*3+1=19 point O(h^6) finite-difference Laplacian
    Max iterations: 1000
    Tolerance: 2.000000e-10 

Memory estimate:
  Process memory now: 246.69 MiB
  Calculator: 111.12 MiB
    Density: 42.40 MiB
      Arrays: 20.61 MiB
      Localized functions: 17.17 MiB
      Mixer: 4.61 MiB
    Hamiltonian: 30.06 MiB
      Arrays: 13.48 MiB
      XC: 0.00 MiB
      Poisson: 15.43 MiB
      vbar: 1.15 MiB
    Wavefunctions: 38.66 MiB
      Arrays psit_nG: 16.15 MiB
      Eigensolver: 20.03 MiB
      Projections: 0.01 MiB
      Projectors: 2.47 MiB

Total number of cores used: 1

Number of atoms: 3
Number of atomic orbitals: 21
Number of bands in calculation: 21
Bands to converge: occupied states only
Number of valence electrons: 21

... initialized

Initializing position-dependent things.

Density initialized from atomic densities
Creating initial wave functions:
  21 bands from LCAO basis set

      .--------------------.  
     /|                    |  
    / |                    |  
   /  |                    |  
  /   |                    |  
 *    |     Hf   C         |  
 |    |                    |  
 |    .----N---------------.  
 |   /                    /   
 |  /                    /    
 | /                    /     
 |/                    /      
 *--------------------*       

Positions:
   0 Hf     3.400000    4.525000    3.000000    ( 0.0000,  0.0000,  0.0000)
   1 N      3.400000    2.975000    3.000000    ( 0.0000,  0.0000,  0.0000)
   2 C      5.100000    4.525000    3.000000    ( 0.0000,  0.0000,  0.0000)

Unit cell:
           periodic     x           y           z      points  spacing
  1. axis:    no     8.500000    0.000000    0.000000    56     0.1518
  2. axis:    no     0.000000    7.500000    0.000000    48     0.1562
  3. axis:    no     0.000000    0.000000    6.000000    40     0.1500

  Lengths:   8.500000   7.500000   6.000000
  Angles:   90.000000  90.000000  90.000000

Effective grid spacing dv^(1/3) = 0.1527

                     log10-error:    total        iterations:
           time      wfs    density  energy       fermi  poisson
iter:   1  15:08:41  +2.59   +inf   -16.196167    0      15     
iter:   2  15:08:41  +1.14   +inf   -16.985218    0             
iter:   3  15:08:42  +0.52   +inf   -17.185869    0             
iter:   4  15:08:45  +0.45  -0.70   -13.078335    0      9      
iter:   5  15:08:48  +0.45  -0.88   -12.271279    0      8      
iter:   6  15:08:50  +0.33  -1.04   -11.678020    0      8      
iter:   7  15:08:53  +0.21  -1.33   -11.686162    0      8      
iter:   8  15:08:55  +0.16  -1.59   -11.704030    0      7      
iter:   9  15:08:58  -0.43  -1.96   -11.711032    0      6      
iter:  10  15:09:00  -0.65  -2.37   -11.714831    0      5      
iter:  11  15:09:02  -1.05  -2.48   -11.716016    0      4      
iter:  12  15:09:05  -1.27  -2.57   -11.715983    0      5      
iter:  13  15:09:07  -1.80  -2.93   -11.716325    0      4      
iter:  14  15:09:09  -1.87  -3.03   -11.716471    0      5      
iter:  15  15:09:11  -2.38  -3.57   -11.716529    0      3      
iter:  16  15:09:13  -2.38  -3.64   -11.716628    0      3      
iter:  17  15:09:15  -2.91  -3.81   -11.716674    0      3      
iter:  18  15:09:17  -2.90  -3.88   -11.716698    0      3      
iter:  19  15:09:19  -3.40  -4.06   -11.716713    0      3      
iter:  20  15:09:21  -3.48  -4.20   -11.716803    0      2      
iter:  21  15:09:23  -3.86  -4.38   -11.716767    0      2      
iter:  22  15:09:25  -4.01  -4.48   -11.716797    0      2      
iter:  23  15:09:27  -4.31  -4.79   -11.716771    0      1      
iter:  24  15:09:28  -4.51  -4.95   -11.716805    0      1      
iter:  25  15:09:30  -4.80  -5.15   -11.716700    0      1      
iter:  26  15:09:32  -5.00  -5.15   -11.716734    0      1      
iter:  27  15:09:34  -5.26  -5.10   -11.716678    0      1      
iter:  28  15:09:35  -5.44  -4.91   -11.716738    0      1      
iter:  29  15:09:37  -5.72  -5.00   -11.716763    0      1      
iter:  30  15:09:39  -5.96  -5.17   -11.716807    0      1      
iter:  31  15:09:41  -6.17  -5.56   -11.716728    0      1      
iter:  32  15:09:42  -6.42  -5.73   -11.716720    0      1      
iter:  33  15:09:44  -6.62  -5.99   -11.716704    0      1      
iter:  34  15:09:46  -6.85  -6.17   -11.716704    0      1      
iter:  35  15:09:47  -7.07  -6.20   -11.716703    0      1      
iter:  36  15:09:49  -7.26  -6.31   -11.716707    0      1      
iter:  37  15:09:51  -7.49  -6.41   -11.716708    0      1      

Converged after 37 iterations.

Dipole moment: (-0.865396, 0.942486, 0.000000) |e|*Ang

Energy contributions relative to reference atoms: (reference = -412395.464894)

Kinetic:        +71.445811
Potential:      -57.176406
External:        +0.000000
XC:             -26.284105
Entropy (-ST):   +0.000000
Local:           +0.297992
--------------------------
Free energy:    -11.716708
Extrapolated:   -11.716708

Fermi level: -4.27076

 Band  Eigenvalues  Occupancy
    0    -63.99177    2.00000
    1    -34.43066    2.00000
    2    -33.68383    2.00000
    3    -33.12827    2.00000
    4    -15.22659    2.00000
    5    -11.85271    2.00000
    6     -7.58246    2.00000
    7     -6.49838    2.00000
    8     -5.48720    2.00000
    9     -5.04795    2.00000
   10     -4.27076    1.00000
   11     -3.03811    0.00000
   12     -2.06547    0.00000
   13     -0.03733    0.00000
   14      0.50701    0.00000
   15      2.20273    0.00000
   16      2.37556    0.00000
   17      2.74344    0.00000
   18      4.34238    0.00000
   19      4.49825    0.00000
   20      4.85702    0.00000

Writing to 3_38249_Pm_PBE_xx1_5500000000000005.gpw (mode='all')

Timing:                              incl.     excl.
-----------------------------------------------------------
Hamiltonian:                         2.966     0.000   0.0% |
 Atomic:                             0.197     0.001   0.0% |
  XC Correction:                     0.196     0.196   0.3% |
 Calculate atomic Hamiltonians:      0.005     0.005   0.0% |
 Communicate:                        0.000     0.000   0.0% |
 Hartree integrate/restrict:         0.011     0.011   0.0% |
 Initialize Hamiltonian:             0.000     0.000   0.0% |
 Poisson:                            2.044     2.044   2.7% ||
 XC 3D grid:                         0.706     0.706   0.9% |
 vbar:                               0.003     0.003   0.0% |
LCAO initialization:                 0.670     0.563   0.7% |
 LCAO eigensolver:                   0.034     0.000   0.0% |
  Calculate projections:             0.000     0.000   0.0% |
  DenseAtomicCorrection:             0.000     0.000   0.0% |
  Distribute overlap matrix:         0.000     0.000   0.0% |
  Orbital Layouts:                   0.000     0.000   0.0% |
  Potential matrix:                  0.033     0.033   0.0% |
 LCAO to grid:                       0.069     0.069   0.1% |
 Set positions (LCAO WFS):           0.004     0.000   0.0% |
  Basic WFS set positions:           0.000     0.000   0.0% |
  Basis functions set positions:     0.000     0.000   0.0% |
  TCI: Calculate S, T, P:            0.003     0.003   0.0% |
SCF-cycle:                          70.980     0.015   0.0% |
 Davidson:                          24.408     4.720   6.2% |-|
  Apply hamiltonian:                 1.897     1.897   2.5% ||
  Subspace diag:                     6.821     0.004   0.0% |
   calc_h_matrix:                    3.339     1.448   1.9% ||
    Apply hamiltonian:               1.891     1.891   2.5% ||
   diagonalize:                      0.009     0.009   0.0% |
   rotate_psi:                       3.470     3.470   4.6% |-|
  calc. matrices:                    7.494     5.595   7.4% |--|
   Apply hamiltonian:                1.898     1.898   2.5% ||
  diagonalize:                       0.029     0.029   0.0% |
  rotate_psi:                        3.448     3.448   4.6% |-|
 Density:                            0.925     0.001   0.0% |
  Atomic density matrices:           0.024     0.024   0.0% |
  Mix:                               0.649     0.649   0.9% |
  Multipole moments:                 0.006     0.006   0.0% |
  Pseudo density:                    0.246     0.246   0.3% |
   Symmetrize density:               0.001     0.001   0.0% |
 Hamiltonian:                       45.565     0.004   0.0% |
  Atomic:                            6.703     0.030   0.0% |
   XC Correction:                    6.674     6.674   8.8% |---|
  Calculate atomic Hamiltonians:     0.159     0.159   0.2% |
  Communicate:                       0.000     0.000   0.0% |
  Hartree integrate/restrict:        0.377     0.377   0.5% |
  Poisson:                          14.307    14.307  18.9% |-------|
  XC 3D grid:                       23.948    23.948  31.7% |------------|
  vbar:                              0.067     0.067   0.1% |
 Orthonormalize:                     0.065     0.000   0.0% |
  calc_s_matrix:                     0.022     0.022   0.0% |
  inverse-cholesky:                  0.000     0.000   0.0% |
  projections:                       0.015     0.015   0.0% |
  rotate_psi_s:                      0.029     0.029   0.0% |
Set symmetry:                        0.001     0.001   0.0% |
Other:                               0.931     0.931   1.2% |
-----------------------------------------------------------
Total:                                        75.547 100.0%

Memory usage: 252.39 MiB
Date: Mon Aug 20 15:09:51 2018
