
  ___ ___ ___ _ _ _  
 |   |   |_  | | | | 
 | | | | | . | | | | 
 |__ |  _|___|_____|  1.4.0
 |___|_|             

User:   ???@3fe09ff0504a
Date:   Mon Aug 20 15:02:21 2018
Arch:   x86_64
Pid:    254
Python: 3.7.0
gpaw:   /app/gpaw/software/venv/lib/python3.7/site-packages/gpaw
_gpaw:  /app/gpaw/software/venv/lib/python3.7/site-packages/
        _gpaw.cpython-37m-x86_64-linux-gnu.so
ase:    /app/gpaw/software/venv/lib/python3.7/site-packages/ase (version 3.16.2)
numpy:  /app/gpaw/software/venv/lib/python3.7/site-packages/numpy (version 1.15.0)
scipy:  /app/gpaw/software/venv/lib/python3.7/site-packages/scipy (version 1.1.0)
units:  Angstrom and eV
cores:  1

Input parameters:
  gpts: [56 48 40]
  maxiter: 150
  mixer: {backend: pulay,
          beta: None,
          method: separate,
          nmaxold: None,
          weight: None}
  xc: PBE

System changes: positions, numbers, cell, pbc, initial_charges, initial_magmoms 

Initialize ...

Hf-setup:
  name: Hafnium
  id: d03a45b6fa1dd7f07e443d1513edf499
  Z: 72
  valence: 12
  core: 60
  charge: 0.0
  file: /app/gpaw/datasets/Hf.PBE
  cutoffs: 1.30(comp), 2.36(filt), 4.02(core), lmax=2
  valence states:
                energy  radius
    5s(2.00)   -66.831   1.397
    6s(2.00)    -5.097   1.397
    5p(6.00)   -35.599   1.307
    6p(0.00)    -1.401   1.307
    5d(2.00)    -2.699   1.334
    *d          24.513   1.334

  Using partial waves for Hf as LCAO basis

N-setup:
  name: Nitrogen
  id: 45c8c9c739e7b131496b9fd2deb94bff
  Z: 7
  valence: 5
  core: 2
  charge: 0.0
  file: /app/gpaw/datasets/N.PBE
  cutoffs: 0.58(comp), 1.11(filt), 0.96(core), lmax=2
  valence states:
                energy  radius
    2s(2.00)   -18.583   0.603
    2p(3.00)    -7.089   0.529
    *s           8.629   0.603
    *p          20.123   0.529
    *d           0.000   0.577

  Using partial waves for N as LCAO basis

C-setup:
  name: Carbon
  id: 2f012631b351e3618121587a96c50fca
  Z: 6
  valence: 4
  core: 2
  charge: 0.0
  file: /app/gpaw/datasets/C.PBE
  cutoffs: 0.64(comp), 1.14(filt), 1.14(core), lmax=2
  valence states:
                energy  radius
    2s(2.00)   -13.751   0.635
    2p(2.00)    -5.285   0.635
    *s          13.461   0.635
    *p          21.927   0.635
    *d           0.000   0.635

  Using partial waves for C as LCAO basis

Reference energy: -412395.464894

Spin-paired calculation

Occupation numbers:
  Fermi-Dirac: width=0.0000 eV

Convergence criteria:
  Maximum total energy change: 0.0005 eV / electron
  Maximum integral of absolute density change: 0.0001 electrons
  Maximum integral of absolute eigenstate change: 4e-08 eV^2
  Maximum number of iterations: 150

Symmetries present (total): 1

  ( 1  0  0)
  ( 0  1  0)
  ( 0  0  1)

1 k-point (Gamma)
1 k-point in the irreducible part of the Brillouin zone
       k-points in crystal coordinates                weights
   0:     0.00000000    0.00000000    0.00000000          1/1

Wave functions: Uniform real-space grid
  Kinetic energy operator: 6*3+1=19 point O(h^6) finite-difference Laplacian
  ScaLapack parameters: grid=1x1, blocksize=None 

Eigensolver
   Davidson(niter=1, smin=None, normalize=True) 

Densities:
  Coarse grid: 56*48*40 grid
  Fine grid: 112*96*80 grid
  Total Charge: 0.000000 

Density mixing:
  Method: separate
  Backend: pulay
  Linear mixing parameter: 0.25
  Mixing with 3 old densities
  No damping of long wave oscillations 

Hamiltonian:
  XC and Coulomb potentials evaluated on a 112*96*80 grid
  Using the PBE Exchange-Correlation functional
  Interpolation: tri-quintic (5. degree polynomial)
  Poisson solver: Jacobi solver with 5 multi-grid levels
    Coarsest grid: 7 x 6 x 5 points
    Stencil: 6*3+1=19 point O(h^6) finite-difference Laplacian
    Max iterations: 1000
    Tolerance: 2.000000e-10 

Memory estimate:
  Process memory now: 236.80 MiB
  Calculator: 111.12 MiB
    Density: 42.40 MiB
      Arrays: 20.61 MiB
      Localized functions: 17.17 MiB
      Mixer: 4.61 MiB
    Hamiltonian: 30.06 MiB
      Arrays: 13.48 MiB
      XC: 0.00 MiB
      Poisson: 15.43 MiB
      vbar: 1.15 MiB
    Wavefunctions: 38.66 MiB
      Arrays psit_nG: 16.15 MiB
      Eigensolver: 20.03 MiB
      Projections: 0.01 MiB
      Projectors: 2.47 MiB

Total number of cores used: 1

Number of atoms: 3
Number of atomic orbitals: 21
Number of bands in calculation: 21
Bands to converge: occupied states only
Number of valence electrons: 21

... initialized

Initializing position-dependent things.

Density initialized from atomic densities
Creating initial wave functions:
  21 bands from LCAO basis set

      .--------------------.  
     /|                    |  
    / |                    |  
   /  |                    |  
  /   |                    |  
 *    |                    |  
 |    |    NHf   C         |  
 |    .--------------------.  
 |   /                    /   
 |  /                    /    
 | /                    /     
 |/                    /      
 *--------------------*       

Positions:
   0 Hf     3.400000    4.400000    3.000000    ( 0.0000,  0.0000,  0.0000)
   1 N      3.400000    3.100000    3.000000    ( 0.0000,  0.0000,  0.0000)
   2 C      5.100000    4.400000    3.000000    ( 0.0000,  0.0000,  0.0000)

Unit cell:
           periodic     x           y           z      points  spacing
  1. axis:    no     8.500000    0.000000    0.000000    56     0.1518
  2. axis:    no     0.000000    7.500000    0.000000    48     0.1562
  3. axis:    no     0.000000    0.000000    6.000000    40     0.1500

  Lengths:   8.500000   7.500000   6.000000
  Angles:   90.000000  90.000000  90.000000

Effective grid spacing dv^(1/3) = 0.1527

                     log10-error:    total        iterations:
           time      wfs    density  energy       fermi  poisson
iter:   1  15:02:26  +2.59   +inf    -5.741722    0      15     
iter:   2  15:02:27  +1.29   +inf    -6.839616    0             
iter:   3  15:02:28  +0.67   +inf    -7.099503    0             
iter:   4  15:02:30  +0.53  -0.69    -2.288041    0      9      
iter:   5  15:02:33  +0.36  -0.93    -1.401527    0      8      
iter:   6  15:02:36  +0.41  -1.15    -1.156753    0      8      
iter:   7  15:02:38  +0.21  -1.40    -1.202636    0      7      
iter:   8  15:02:41  +0.01  -1.60    -1.240820    0      7      
iter:   9  15:02:43  -0.41  -1.90    -1.252062    0      6      
iter:  10  15:02:46  -0.64  -2.17    -1.254262    0      5      
iter:  11  15:02:48  -1.16  -2.36    -1.254578    0      5      
iter:  12  15:02:50  -1.37  -2.55    -1.254560    0      5      
iter:  13  15:02:53  -1.90  -2.72    -1.254649    0      5      
iter:  14  15:02:55  -1.97  -2.90    -1.254742    0      4      
iter:  15  15:02:57  -2.49  -3.02    -1.254800    0      4      
iter:  16  15:02:59  -2.55  -3.24    -1.254816    0      4      
iter:  17  15:03:01  -3.06  -3.42    -1.254818    0      4      
iter:  18  15:03:03  -3.06  -3.76    -1.254818    0      3      
iter:  19  15:03:05  -3.53  -4.00    -1.254873    0      2      
iter:  20  15:03:07  -3.57  -4.15    -1.254897    0      2      
iter:  21  15:03:09  -4.04  -4.31    -1.254923    0      2      
iter:  22  15:03:11  -4.15  -4.48    -1.254878    0      2      
iter:  23  15:03:12  -4.53  -4.60    -1.255033    0      1      
iter:  24  15:03:14  -4.67  -4.67    -1.254876    0      2      
iter:  25  15:03:16  -5.04  -4.91    -1.254989    0      1      
iter:  26  15:03:18  -5.22  -5.18    -1.254838    0      1      
iter:  27  15:03:19  -5.53  -5.29    -1.254841    0      1      
iter:  28  15:03:21  -5.72  -5.50    -1.254823    0      1      
iter:  29  15:03:23  -6.01  -5.69    -1.254833    0      1      
iter:  30  15:03:25  -6.20  -5.78    -1.254834    0      1      
iter:  31  15:03:26  -6.48  -5.93    -1.254841    0      1      
iter:  32  15:03:28  -6.69  -6.16    -1.254839    0      1      
iter:  33  15:03:30  -6.95  -6.28    -1.254843    0      1      
iter:  34  15:03:32  -7.14  -6.43    -1.254840    0      1      
iter:  35  15:03:33  -7.40  -6.61    -1.254840    0      1      
iter:  36  15:03:35  -7.56  -6.53    -1.254839    0      1      

Converged after 36 iterations.

Dipole moment: (-0.918190, 0.497431, 0.000000) |e|*Ang

Energy contributions relative to reference atoms: (reference = -412395.464894)

Kinetic:       +143.860079
Potential:     -111.749248
External:        +0.000000
XC:             -34.474834
Entropy (-ST):   +0.000000
Local:           +1.109163
--------------------------
Free energy:     -1.254839
Extrapolated:    -1.254839

Fermi level: -3.75389

 Band  Eigenvalues  Occupancy
    0    -64.57487    2.00000
    1    -37.02774    2.00000
    2    -33.64372    2.00000
    3    -33.04817    2.00000
    4    -14.23731    2.00000
    5    -11.68312    2.00000
    6     -9.28463    2.00000
    7     -8.49735    2.00000
    8     -5.49517    2.00000
    9     -4.87377    2.00000
   10     -3.75389    1.00000
   11     -2.67858    0.00000
   12     -1.78554    0.00000
   13      0.23472    0.00000
   14      0.78423    0.00000
   15      2.87296    0.00000
   16      3.01117    0.00000
   17      3.30934    0.00000
   18      4.25508    0.00000
   19      5.20343    0.00000
   20      5.50420    0.00000

Writing to 3_38249_Pm_PBE_xx1_3000000000000003.gpw (mode='all')

Timing:                              incl.     excl.
-----------------------------------------------------------
Hamiltonian:                         2.991     0.000   0.0% |
 Atomic:                             0.197     0.001   0.0% |
  XC Correction:                     0.196     0.196   0.3% |
 Calculate atomic Hamiltonians:      0.005     0.005   0.0% |
 Communicate:                        0.000     0.000   0.0% |
 Hartree integrate/restrict:         0.011     0.011   0.0% |
 Initialize Hamiltonian:             0.000     0.000   0.0% |
 Poisson:                            2.071     2.071   2.8% ||
 XC 3D grid:                         0.703     0.703   0.9% |
 vbar:                               0.004     0.004   0.0% |
LCAO initialization:                 0.678     0.570   0.8% |
 LCAO eigensolver:                   0.034     0.000   0.0% |
  Calculate projections:             0.000     0.000   0.0% |
  DenseAtomicCorrection:             0.000     0.000   0.0% |
  Distribute overlap matrix:         0.000     0.000   0.0% |
  Orbital Layouts:                   0.000     0.000   0.0% |
  Potential matrix:                  0.034     0.034   0.0% |
 LCAO to grid:                       0.070     0.070   0.1% |
 Set positions (LCAO WFS):           0.004     0.000   0.0% |
  Basic WFS set positions:           0.000     0.000   0.0% |
  Basis functions set positions:     0.000     0.000   0.0% |
  TCI: Calculate S, T, P:            0.003     0.003   0.0% |
SCF-cycle:                          69.538     0.015   0.0% |
 Davidson:                          23.728     4.650   6.3% |--|
  Apply hamiltonian:                 1.842     1.842   2.5% ||
  Subspace diag:                     6.608     0.004   0.0% |
   calc_h_matrix:                    3.229     1.393   1.9% ||
    Apply hamiltonian:               1.836     1.836   2.5% ||
   diagonalize:                      0.008     0.008   0.0% |
   rotate_psi:                       3.367     3.367   4.5% |-|
  calc. matrices:                    7.250     5.405   7.3% |--|
   Apply hamiltonian:                1.844     1.844   2.5% ||
  diagonalize:                       0.028     0.028   0.0% |
  rotate_psi:                        3.350     3.350   4.5% |-|
 Density:                            0.896     0.001   0.0% |
  Atomic density matrices:           0.023     0.023   0.0% |
  Mix:                               0.628     0.628   0.8% |
  Multipole moments:                 0.006     0.006   0.0% |
  Pseudo density:                    0.238     0.238   0.3% |
   Symmetrize density:               0.001     0.001   0.0% |
 Hamiltonian:                       44.834     0.004   0.0% |
  Atomic:                            6.491     0.029   0.0% |
   XC Correction:                    6.463     6.463   8.7% |--|
  Calculate atomic Hamiltonians:     0.154     0.154   0.2% |
  Communicate:                       0.000     0.000   0.0% |
  Hartree integrate/restrict:        0.363     0.363   0.5% |
  Poisson:                          14.558    14.558  19.6% |-------|
  XC 3D grid:                       23.199    23.199  31.3% |------------|
  vbar:                              0.065     0.065   0.1% |
 Orthonormalize:                     0.065     0.000   0.0% |
  calc_s_matrix:                     0.022     0.022   0.0% |
  inverse-cholesky:                  0.000     0.000   0.0% |
  projections:                       0.015     0.015   0.0% |
  rotate_psi_s:                      0.028     0.028   0.0% |
Set symmetry:                        0.001     0.001   0.0% |
Other:                               0.935     0.935   1.3% ||
-----------------------------------------------------------
Total:                                        74.143 100.0%

Memory usage: 240.15 MiB
Date: Mon Aug 20 15:03:35 2018
