
  ___ ___ ___ _ _ _  
 |   |   |_  | | | | 
 | | | | | . | | | | 
 |__ |  _|___|_____|  1.4.0
 |___|_|             

User:   ???@3fe09ff0504a
Date:   Mon Aug 20 16:26:57 2018
Arch:   x86_64
Pid:    1230
Python: 3.7.0
gpaw:   /app/gpaw/software/venv/lib/python3.7/site-packages/gpaw
_gpaw:  /app/gpaw/software/venv/lib/python3.7/site-packages/
        _gpaw.cpython-37m-x86_64-linux-gnu.so
ase:    /app/gpaw/software/venv/lib/python3.7/site-packages/ase (version 3.16.2)
numpy:  /app/gpaw/software/venv/lib/python3.7/site-packages/numpy (version 1.15.0)
scipy:  /app/gpaw/software/venv/lib/python3.7/site-packages/scipy (version 1.1.0)
units:  Angstrom and eV
cores:  1

Input parameters:
  gpts: [56 48 40]
  maxiter: 150
  mixer: {backend: pulay,
          beta: None,
          method: separate,
          nmaxold: None,
          weight: None}
  xc: PBE

System changes: positions, numbers, cell, pbc, initial_charges, initial_magmoms 

Initialize ...

Hf-setup:
  name: Hafnium
  id: d03a45b6fa1dd7f07e443d1513edf499
  Z: 72
  valence: 12
  core: 60
  charge: 0.0
  file: /app/gpaw/datasets/Hf.PBE
  cutoffs: 1.30(comp), 2.36(filt), 4.02(core), lmax=2
  valence states:
                energy  radius
    5s(2.00)   -66.831   1.397
    6s(2.00)    -5.097   1.397
    5p(6.00)   -35.599   1.307
    6p(0.00)    -1.401   1.307
    5d(2.00)    -2.699   1.334
    *d          24.513   1.334

  Using partial waves for Hf as LCAO basis

N-setup:
  name: Nitrogen
  id: 45c8c9c739e7b131496b9fd2deb94bff
  Z: 7
  valence: 5
  core: 2
  charge: 0.0
  file: /app/gpaw/datasets/N.PBE
  cutoffs: 0.58(comp), 1.11(filt), 0.96(core), lmax=2
  valence states:
                energy  radius
    2s(2.00)   -18.583   0.603
    2p(3.00)    -7.089   0.529
    *s           8.629   0.603
    *p          20.123   0.529
    *d           0.000   0.577

  Using partial waves for N as LCAO basis

C-setup:
  name: Carbon
  id: 2f012631b351e3618121587a96c50fca
  Z: 6
  valence: 4
  core: 2
  charge: 0.0
  file: /app/gpaw/datasets/C.PBE
  cutoffs: 0.64(comp), 1.14(filt), 1.14(core), lmax=2
  valence states:
                energy  radius
    2s(2.00)   -13.751   0.635
    2p(2.00)    -5.285   0.635
    *s          13.461   0.635
    *p          21.927   0.635
    *d           0.000   0.635

  Using partial waves for C as LCAO basis

Reference energy: -412395.464894

Spin-paired calculation

Occupation numbers:
  Fermi-Dirac: width=0.0000 eV

Convergence criteria:
  Maximum total energy change: 0.0005 eV / electron
  Maximum integral of absolute density change: 0.0001 electrons
  Maximum integral of absolute eigenstate change: 4e-08 eV^2
  Maximum number of iterations: 150

Symmetries present (total): 1

  ( 1  0  0)
  ( 0  1  0)
  ( 0  0  1)

1 k-point (Gamma)
1 k-point in the irreducible part of the Brillouin zone
       k-points in crystal coordinates                weights
   0:     0.00000000    0.00000000    0.00000000          1/1

Wave functions: Uniform real-space grid
  Kinetic energy operator: 6*3+1=19 point O(h^6) finite-difference Laplacian
  ScaLapack parameters: grid=1x1, blocksize=None 

Eigensolver
   Davidson(niter=1, smin=None, normalize=True) 

Densities:
  Coarse grid: 56*48*40 grid
  Fine grid: 112*96*80 grid
  Total Charge: 0.000000 

Density mixing:
  Method: separate
  Backend: pulay
  Linear mixing parameter: 0.25
  Mixing with 3 old densities
  No damping of long wave oscillations 

Hamiltonian:
  XC and Coulomb potentials evaluated on a 112*96*80 grid
  Using the PBE Exchange-Correlation functional
  Interpolation: tri-quintic (5. degree polynomial)
  Poisson solver: Jacobi solver with 5 multi-grid levels
    Coarsest grid: 7 x 6 x 5 points
    Stencil: 6*3+1=19 point O(h^6) finite-difference Laplacian
    Max iterations: 1000
    Tolerance: 2.000000e-10 

Memory estimate:
  Process memory now: 230.09 MiB
  Calculator: 111.12 MiB
    Density: 42.40 MiB
      Arrays: 20.61 MiB
      Localized functions: 17.17 MiB
      Mixer: 4.61 MiB
    Hamiltonian: 30.06 MiB
      Arrays: 13.48 MiB
      XC: 0.00 MiB
      Poisson: 15.43 MiB
      vbar: 1.15 MiB
    Wavefunctions: 38.66 MiB
      Arrays psit_nG: 16.15 MiB
      Eigensolver: 20.03 MiB
      Projections: 0.01 MiB
      Projectors: 2.47 MiB

Total number of cores used: 1

Number of atoms: 3
Number of atomic orbitals: 21
Number of bands in calculation: 21
Bands to converge: occupied states only
Number of valence electrons: 21

... initialized

Initializing position-dependent things.

Density initialized from atomic densities
Creating initial wave functions:
  21 bands from LCAO basis set

      .--------------------.  
     /|                    |  
    / |                    |  
   /  |                    |  
  /   |                    |  
 *    |     C    Hf        |  
 |    |                    |  
 |    .---------N----------.  
 |   /                    /   
 |  /                    /    
 | /                    /     
 |/                    /      
 *--------------------*       

Positions:
   0 Hf     5.165000    4.656250    3.000000    ( 0.0000,  0.0000,  0.0000)
   1 N      5.165000    2.843750    3.000000    ( 0.0000,  0.0000,  0.0000)
   2 C      3.335000    4.656250    3.000000    ( 0.0000,  0.0000,  0.0000)

Unit cell:
           periodic     x           y           z      points  spacing
  1. axis:    no     8.500000    0.000000    0.000000    56     0.1518
  2. axis:    no     0.000000    7.500000    0.000000    48     0.1562
  3. axis:    no     0.000000    0.000000    6.000000    40     0.1500

  Lengths:   8.500000   7.500000   6.000000
  Angles:   90.000000  90.000000  90.000000

Effective grid spacing dv^(1/3) = 0.1527

                     log10-error:    total        iterations:
           time      wfs    density  energy       fermi  poisson
iter:   1  16:27:03  +2.60   +inf   -18.795525    0      15     
iter:   2  16:27:03  +0.92   +inf   -19.259628    0             
iter:   3  16:27:04  +0.36   +inf   -19.383946    0             
iter:   4  16:27:07  +0.32  -0.70   -16.443031    0      9      
iter:   5  16:27:09  +0.51  -0.76   -15.226144    0      8      
iter:   6  16:27:12  +0.32  -0.96   -14.476672    0      8      
iter:   7  16:27:15  +0.03  -1.18   -14.340182    0      8      
iter:   8  16:27:17  +0.16  -1.46   -14.370052    0      7      
iter:   9  16:27:20  -0.44  -1.59   -14.356319    0      7      
iter:  10  16:27:22  -0.27  -1.98   -14.357852    0      5      
iter:  11  16:27:24  -1.11  -2.25   -14.358485    0      5      
iter:  12  16:27:27  -1.27  -2.45   -14.358798    0      4      
iter:  13  16:27:29  -1.72  -2.68   -14.359014    0      4      
iter:  14  16:27:31  -1.93  -2.75   -14.359086    0      5      
iter:  15  16:27:33  -2.30  -3.25   -14.359041    0      3      
iter:  16  16:27:35  -2.53  -3.43   -14.359065    0      3      
iter:  17  16:27:37  -2.92  -3.67   -14.359146    0      3      
iter:  18  16:27:39  -3.03  -3.79   -14.359388    0      2      
iter:  19  16:27:41  -3.43  -3.84   -14.359229    0      2      
iter:  20  16:27:42  -3.55  -3.86   -14.359116    0      1      
iter:  21  16:27:45  -3.92  -3.77   -14.359268    0      3      
iter:  22  16:27:46  -4.12  -3.94   -14.359291    0      2      
iter:  23  16:27:48  -4.46  -4.13   -14.359267    0      3      
iter:  24  16:27:50  -4.65  -4.53   -14.359064    0      1      
iter:  25  16:27:52  -4.97  -4.64   -14.359220    0      2      
iter:  26  16:27:54  -5.14  -4.74   -14.359172    0      1      
iter:  27  16:27:55  -5.45  -5.10   -14.359283    0      1      
iter:  28  16:27:57  -5.61  -5.11   -14.359340    0      1      
iter:  29  16:27:59  -5.91  -5.23   -14.359348    0      1      
iter:  30  16:28:01  -6.07  -5.46   -14.359230    0      1      
iter:  31  16:28:02  -6.34  -5.52   -14.359258    0      1      
iter:  32  16:28:04  -6.52  -6.02   -14.359253    0      1      
iter:  33  16:28:06  -6.77  -5.89   -14.359257    0      1      
iter:  34  16:28:08  -6.97  -6.10   -14.359258    0      1      
iter:  35  16:28:09  -7.21  -6.13   -14.359259    0      1      
iter:  36  16:28:11  -7.42  -6.23   -14.359258    0      1      

Converged after 36 iterations.

Dipole moment: (0.972193, 1.312254, 0.000000) |e|*Ang

Energy contributions relative to reference atoms: (reference = -412395.464894)

Kinetic:        +21.805729
Potential:      -17.519921
External:        +0.000000
XC:             -18.585332
Entropy (-ST):   +0.000000
Local:           -0.059734
--------------------------
Free energy:    -14.359258
Extrapolated:   -14.359258

Fermi level: -4.75113

 Band  Eigenvalues  Occupancy
    0    -64.84616    2.00000
    1    -34.16852    2.00000
    2    -34.09741    2.00000
    3    -33.97494    2.00000
    4    -15.55662    2.00000
    5    -12.15221    2.00000
    6     -6.30153    2.00000
    7     -5.31057    2.00000
    8     -5.17606    2.00000
    9     -4.79077    2.00000
   10     -4.75113    1.00000
   11     -3.29576    0.00000
   12     -2.50436    0.00000
   13     -0.70593    0.00000
   14     -0.28084    0.00000
   15      0.79810    0.00000
   16      1.30016    0.00000
   17      1.99999    0.00000
   18      3.64824    0.00000
   19      3.72748    0.00000
   20      4.47597    0.00000

Writing to 3_38249_Pm_PBE_zz1_8299.gpw (mode='all')

Timing:                              incl.     excl.
-----------------------------------------------------------
Hamiltonian:                         2.962     0.000   0.0% |
 Atomic:                             0.203     0.001   0.0% |
  XC Correction:                     0.202     0.202   0.3% |
 Calculate atomic Hamiltonians:      0.005     0.005   0.0% |
 Communicate:                        0.000     0.000   0.0% |
 Hartree integrate/restrict:         0.012     0.012   0.0% |
 Initialize Hamiltonian:             0.000     0.000   0.0% |
 Poisson:                            2.036     2.036   2.8% ||
 XC 3D grid:                         0.702     0.702   1.0% |
 vbar:                               0.004     0.004   0.0% |
LCAO initialization:                 0.687     0.583   0.8% |
 LCAO eigensolver:                   0.032     0.000   0.0% |
  Calculate projections:             0.000     0.000   0.0% |
  DenseAtomicCorrection:             0.000     0.000   0.0% |
  Distribute overlap matrix:         0.000     0.000   0.0% |
  Orbital Layouts:                   0.000     0.000   0.0% |
  Potential matrix:                  0.032     0.032   0.0% |
 LCAO to grid:                       0.068     0.068   0.1% |
 Set positions (LCAO WFS):           0.004     0.000   0.0% |
  Basic WFS set positions:           0.000     0.000   0.0% |
  Basis functions set positions:     0.000     0.000   0.0% |
  TCI: Calculate S, T, P:            0.003     0.003   0.0% |
SCF-cycle:                          69.345     0.015   0.0% |
 Davidson:                          23.660     4.586   6.2% |-|
  Apply hamiltonian:                 1.845     1.845   2.5% ||
  Subspace diag:                     6.633     0.004   0.0% |
   calc_h_matrix:                    3.257     1.417   1.9% ||
    Apply hamiltonian:               1.839     1.839   2.5% ||
   diagonalize:                      0.008     0.008   0.0% |
   rotate_psi:                       3.363     3.363   4.5% |-|
  calc. matrices:                    7.229     5.385   7.3% |--|
   Apply hamiltonian:                1.844     1.844   2.5% ||
  diagonalize:                       0.028     0.028   0.0% |
  rotate_psi:                        3.339     3.339   4.5% |-|
 Density:                            0.895     0.001   0.0% |
  Atomic density matrices:           0.023     0.023   0.0% |
  Mix:                               0.627     0.627   0.8% |
  Multipole moments:                 0.006     0.006   0.0% |
  Pseudo density:                    0.239     0.238   0.3% |
   Symmetrize density:               0.001     0.001   0.0% |
 Hamiltonian:                       44.710     0.004   0.0% |
  Atomic:                            6.493     0.029   0.0% |
   XC Correction:                    6.464     6.464   8.7% |--|
  Calculate atomic Hamiltonians:     0.152     0.152   0.2% |
  Communicate:                       0.000     0.000   0.0% |
  Hartree integrate/restrict:        0.362     0.362   0.5% |
  Poisson:                          14.437    14.437  19.5% |-------|
  XC 3D grid:                       23.197    23.197  31.4% |------------|
  vbar:                              0.066     0.066   0.1% |
 Orthonormalize:                     0.065     0.000   0.0% |
  calc_s_matrix:                     0.022     0.022   0.0% |
  inverse-cholesky:                  0.000     0.000   0.0% |
  projections:                       0.015     0.015   0.0% |
  rotate_psi_s:                      0.028     0.028   0.0% |
Set symmetry:                        0.001     0.001   0.0% |
Other:                               0.927     0.927   1.3% ||
-----------------------------------------------------------
Total:                                        73.922 100.0%

Memory usage: 236.84 MiB
Date: Mon Aug 20 16:28:11 2018
