
  ___ ___ ___ _ _ _  
 |   |   |_  | | | | 
 | | | | | . | | | | 
 |__ |  _|___|_____|  1.4.0
 |___|_|             

User:   ???@3fe09ff0504a
Date:   Mon Aug 20 16:04:07 2018
Arch:   x86_64
Pid:    566
Python: 3.7.0
gpaw:   /app/gpaw/software/venv/lib/python3.7/site-packages/gpaw
_gpaw:  /app/gpaw/software/venv/lib/python3.7/site-packages/
        _gpaw.cpython-37m-x86_64-linux-gnu.so
ase:    /app/gpaw/software/venv/lib/python3.7/site-packages/ase (version 3.16.2)
numpy:  /app/gpaw/software/venv/lib/python3.7/site-packages/numpy (version 1.15.0)
scipy:  /app/gpaw/software/venv/lib/python3.7/site-packages/scipy (version 1.1.0)
units:  Angstrom and eV
cores:  1

Input parameters:
  gpts: [56 48 40]
  maxiter: 150
  mixer: {backend: pulay,
          beta: None,
          method: separate,
          nmaxold: None,
          weight: None}
  xc: PBE

System changes: positions, numbers, cell, pbc, initial_charges, initial_magmoms 

Initialize ...

Hf-setup:
  name: Hafnium
  id: d03a45b6fa1dd7f07e443d1513edf499
  Z: 72
  valence: 12
  core: 60
  charge: 0.0
  file: /app/gpaw/datasets/Hf.PBE
  cutoffs: 1.30(comp), 2.36(filt), 4.02(core), lmax=2
  valence states:
                energy  radius
    5s(2.00)   -66.831   1.397
    6s(2.00)    -5.097   1.397
    5p(6.00)   -35.599   1.307
    6p(0.00)    -1.401   1.307
    5d(2.00)    -2.699   1.334
    *d          24.513   1.334

  Using partial waves for Hf as LCAO basis

N-setup:
  name: Nitrogen
  id: 45c8c9c739e7b131496b9fd2deb94bff
  Z: 7
  valence: 5
  core: 2
  charge: 0.0
  file: /app/gpaw/datasets/N.PBE
  cutoffs: 0.58(comp), 1.11(filt), 0.96(core), lmax=2
  valence states:
                energy  radius
    2s(2.00)   -18.583   0.603
    2p(3.00)    -7.089   0.529
    *s           8.629   0.603
    *p          20.123   0.529
    *d           0.000   0.577

  Using partial waves for N as LCAO basis

C-setup:
  name: Carbon
  id: 2f012631b351e3618121587a96c50fca
  Z: 6
  valence: 4
  core: 2
  charge: 0.0
  file: /app/gpaw/datasets/C.PBE
  cutoffs: 0.64(comp), 1.14(filt), 1.14(core), lmax=2
  valence states:
                energy  radius
    2s(2.00)   -13.751   0.635
    2p(2.00)    -5.285   0.635
    *s          13.461   0.635
    *p          21.927   0.635
    *d           0.000   0.635

  Using partial waves for C as LCAO basis

Reference energy: -412395.464894

Spin-paired calculation

Occupation numbers:
  Fermi-Dirac: width=0.0000 eV

Convergence criteria:
  Maximum total energy change: 0.0005 eV / electron
  Maximum integral of absolute density change: 0.0001 electrons
  Maximum integral of absolute eigenstate change: 4e-08 eV^2
  Maximum number of iterations: 150

Symmetries present (total): 1

  ( 1  0  0)
  ( 0  1  0)
  ( 0  0  1)

1 k-point (Gamma)
1 k-point in the irreducible part of the Brillouin zone
       k-points in crystal coordinates                weights
   0:     0.00000000    0.00000000    0.00000000          1/1

Wave functions: Uniform real-space grid
  Kinetic energy operator: 6*3+1=19 point O(h^6) finite-difference Laplacian
  ScaLapack parameters: grid=1x1, blocksize=None 

Eigensolver
   Davidson(niter=1, smin=None, normalize=True) 

Densities:
  Coarse grid: 56*48*40 grid
  Fine grid: 112*96*80 grid
  Total Charge: 0.000000 

Density mixing:
  Method: separate
  Backend: pulay
  Linear mixing parameter: 0.25
  Mixing with 3 old densities
  No damping of long wave oscillations 

Hamiltonian:
  XC and Coulomb potentials evaluated on a 112*96*80 grid
  Using the PBE Exchange-Correlation functional
  Interpolation: tri-quintic (5. degree polynomial)
  Poisson solver: Jacobi solver with 5 multi-grid levels
    Coarsest grid: 7 x 6 x 5 points
    Stencil: 6*3+1=19 point O(h^6) finite-difference Laplacian
    Max iterations: 1000
    Tolerance: 2.000000e-10 

Memory estimate:
  Process memory now: 237.17 MiB
  Calculator: 111.12 MiB
    Density: 42.40 MiB
      Arrays: 20.61 MiB
      Localized functions: 17.17 MiB
      Mixer: 4.61 MiB
    Hamiltonian: 30.06 MiB
      Arrays: 13.48 MiB
      XC: 0.00 MiB
      Poisson: 15.43 MiB
      vbar: 1.15 MiB
    Wavefunctions: 38.66 MiB
      Arrays psit_nG: 16.15 MiB
      Eigensolver: 20.03 MiB
      Projections: 0.01 MiB
      Projectors: 2.47 MiB

Total number of cores used: 1

Number of atoms: 3
Number of atomic orbitals: 21
Number of bands in calculation: 21
Bands to converge: occupied states only
Number of valence electrons: 21

... initialized

Initializing position-dependent things.

Density initialized from atomic densities
Creating initial wave functions:
  21 bands from LCAO basis set

      .--------------------.  
     /|                    |  
    / |                    |  
   /  |                    |  
  /   |                    |  
 *    |                    |  
 |    |      C NHf         |  
 |    .--------------------.  
 |   /                    /   
 |  /                    /    
 | /                    /     
 |/                    /      
 *--------------------*       

Positions:
   0 Hf     5.050000    4.475000    3.000000    ( 0.0000,  0.0000,  0.0000)
   1 N      5.050000    3.025000    3.000000    ( 0.0000,  0.0000,  0.0000)
   2 C      3.450000    4.475000    3.000000    ( 0.0000,  0.0000,  0.0000)

Unit cell:
           periodic     x           y           z      points  spacing
  1. axis:    no     8.500000    0.000000    0.000000    56     0.1518
  2. axis:    no     0.000000    7.500000    0.000000    48     0.1562
  3. axis:    no     0.000000    0.000000    6.000000    40     0.1500

  Lengths:   8.500000   7.500000   6.000000
  Angles:   90.000000  90.000000  90.000000

Effective grid spacing dv^(1/3) = 0.1527

                     log10-error:    total        iterations:
           time      wfs    density  energy       fermi  poisson
iter:   1  16:04:12  +2.59   +inf   -12.384729    0      15     
iter:   2  16:04:13  +1.25   +inf   -13.355745    0             
iter:   3  16:04:14  +0.61   +inf   -13.586295    0             
iter:   4  16:04:17  +0.49  -0.70    -9.147396    0      9      
iter:   5  16:04:19  +0.46  -0.92    -8.226528    0      8      
iter:   6  16:04:22  +0.37  -1.10    -7.840481    0      8      
iter:   7  16:04:24  +0.26  -1.39    -7.875555    0      7      
iter:   8  16:04:27  +0.05  -1.59    -7.901304    0      7      
iter:   9  16:04:29  -0.39  -1.94    -7.908840    0      6      
iter:  10  16:04:32  -0.61  -2.22    -7.910748    0      5      
iter:  11  16:04:34  -1.08  -2.38    -7.911006    0      5      
iter:  12  16:04:36  -1.33  -2.57    -7.910966    0      5      
iter:  13  16:04:39  -1.81  -2.77    -7.911183    0      5      
iter:  14  16:04:41  -1.92  -2.95    -7.911315    0      4      
iter:  15  16:04:43  -2.41  -3.03    -7.911364    0      4      
iter:  16  16:04:45  -2.53  -3.42    -7.911371    0      3      
iter:  17  16:04:47  -2.97  -3.53    -7.911399    0      4      
iter:  18  16:04:49  -3.04  -4.23    -7.911550    0      2      
iter:  19  16:04:51  -3.46  -4.20    -7.911447    0      2      
iter:  20  16:04:53  -3.53  -4.16    -7.911340    0      1      
iter:  21  16:04:54  -3.92  -4.05    -7.911509    0      2      
iter:  22  16:04:56  -4.03  -4.11    -7.911470    0      3      
iter:  23  16:04:58  -4.35  -4.45    -7.911428    0      2      
iter:  24  16:05:00  -4.52  -4.44    -7.911520    0      2      
iter:  25  16:05:02  -4.81  -4.81    -7.911435    0      2      
iter:  26  16:05:04  -5.08  -5.08    -7.911387    0      1      
iter:  27  16:05:06  -5.40  -5.22    -7.911422    0      1      
iter:  28  16:05:07  -5.57  -5.32    -7.911476    0      1      
iter:  29  16:05:09  -5.87  -5.44    -7.911480    0      1      
iter:  30  16:05:11  -6.13  -5.65    -7.911420    0      1      
iter:  31  16:05:13  -6.33  -5.75    -7.911445    0      1      
iter:  32  16:05:14  -6.57  -5.86    -7.911447    0      1      
iter:  33  16:05:16  -6.76  -5.98    -7.911447    0      1      
iter:  34  16:05:18  -7.00  -6.16    -7.911440    0      1      
iter:  35  16:05:20  -7.17  -6.23    -7.911441    0      1      
iter:  36  16:05:21  -7.42  -6.46    -7.911441    0      1      

Converged after 36 iterations.

Dipole moment: (0.783275, 0.742688, -0.000000) |e|*Ang

Energy contributions relative to reference atoms: (reference = -412395.464894)

Kinetic:       +106.700348
Potential:      -84.155040
External:        +0.000000
XC:             -31.054159
Entropy (-ST):   +0.000000
Local:           +0.597410
--------------------------
Free energy:     -7.911441
Extrapolated:    -7.911441

Fermi level: -3.92087

 Band  Eigenvalues  Occupancy
    0    -63.89928    2.00000
    1    -35.14839    2.00000
    2    -33.88848    2.00000
    3    -32.81158    2.00000
    4    -14.92489    2.00000
    5    -11.53009    2.00000
    6     -8.46036    2.00000
    7     -7.19670    2.00000
    8     -5.64432    2.00000
    9     -5.36671    2.00000
   10     -3.92087    1.00000
   11     -2.84036    0.00000
   12     -1.86153    0.00000
   13      0.25300    0.00000
   14      0.96055    0.00000
   15      2.75691    0.00000
   16      2.90837    0.00000
   17      2.93572    0.00000
   18      4.30423    0.00000
   19      4.83798    0.00000
   20      5.45884    0.00000

Writing to 3_38249_Pm_PBE_yy1_6.gpw (mode='all')

Timing:                              incl.     excl.
-----------------------------------------------------------
Hamiltonian:                         2.956     0.000   0.0% |
 Atomic:                             0.199     0.001   0.0% |
  XC Correction:                     0.198     0.198   0.3% |
 Calculate atomic Hamiltonians:      0.005     0.005   0.0% |
 Communicate:                        0.000     0.000   0.0% |
 Hartree integrate/restrict:         0.011     0.011   0.0% |
 Initialize Hamiltonian:             0.000     0.000   0.0% |
 Poisson:                            2.031     2.031   2.7% ||
 XC 3D grid:                         0.707     0.707   1.0% |
 vbar:                               0.003     0.003   0.0% |
LCAO initialization:                 0.672     0.564   0.8% |
 LCAO eigensolver:                   0.034     0.000   0.0% |
  Calculate projections:             0.000     0.000   0.0% |
  DenseAtomicCorrection:             0.000     0.000   0.0% |
  Distribute overlap matrix:         0.000     0.000   0.0% |
  Orbital Layouts:                   0.000     0.000   0.0% |
  Potential matrix:                  0.033     0.033   0.0% |
 LCAO to grid:                       0.070     0.070   0.1% |
 Set positions (LCAO WFS):           0.004     0.000   0.0% |
  Basic WFS set positions:           0.000     0.000   0.0% |
  Basis functions set positions:     0.000     0.000   0.0% |
  TCI: Calculate S, T, P:            0.003     0.003   0.0% |
SCF-cycle:                          69.689     0.015   0.0% |
 Davidson:                          23.752     4.657   6.3% |--|
  Apply hamiltonian:                 1.839     1.839   2.5% ||
  Subspace diag:                     6.636     0.004   0.0% |
   calc_h_matrix:                    3.255     1.419   1.9% ||
    Apply hamiltonian:               1.836     1.836   2.5% ||
   diagonalize:                      0.008     0.008   0.0% |
   rotate_psi:                       3.370     3.370   4.5% |-|
  calc. matrices:                    7.249     5.408   7.3% |--|
   Apply hamiltonian:                1.841     1.841   2.5% ||
  diagonalize:                       0.028     0.028   0.0% |
  rotate_psi:                        3.341     3.341   4.5% |-|
 Density:                            0.889     0.001   0.0% |
  Atomic density matrices:           0.023     0.023   0.0% |
  Mix:                               0.623     0.623   0.8% |
  Multipole moments:                 0.006     0.006   0.0% |
  Pseudo density:                    0.237     0.237   0.3% |
   Symmetrize density:               0.001     0.001   0.0% |
 Hamiltonian:                       44.968     0.004   0.0% |
  Atomic:                            6.510     0.029   0.0% |
   XC Correction:                    6.481     6.481   8.7% |--|
  Calculate atomic Hamiltonians:     0.154     0.154   0.2% |
  Communicate:                       0.000     0.000   0.0% |
  Hartree integrate/restrict:        0.361     0.361   0.5% |
  Poisson:                          14.655    14.655  19.7% |-------|
  XC 3D grid:                       23.217    23.217  31.3% |------------|
  vbar:                              0.067     0.067   0.1% |
 Orthonormalize:                     0.065     0.000   0.0% |
  calc_s_matrix:                     0.022     0.022   0.0% |
  inverse-cholesky:                  0.000     0.000   0.0% |
  projections:                       0.015     0.015   0.0% |
  rotate_psi_s:                      0.028     0.028   0.0% |
Set symmetry:                        0.001     0.001   0.0% |
Other:                               0.943     0.943   1.3% ||
-----------------------------------------------------------
Total:                                        74.262 100.0%

Memory usage: 240.45 MiB
Date: Mon Aug 20 16:05:21 2018
