
  ___ ___ ___ _ _ _  
 |   |   |_  | | | | 
 | | | | | . | | | | 
 |__ |  _|___|_____|  1.4.0
 |___|_|             

User:   ???@3fe09ff0504a
Date:   Mon Aug 20 15:39:12 2018
Arch:   x86_64
Pid:    417
Python: 3.7.0
gpaw:   /app/gpaw/software/venv/lib/python3.7/site-packages/gpaw
_gpaw:  /app/gpaw/software/venv/lib/python3.7/site-packages/
        _gpaw.cpython-37m-x86_64-linux-gnu.so
ase:    /app/gpaw/software/venv/lib/python3.7/site-packages/ase (version 3.16.2)
numpy:  /app/gpaw/software/venv/lib/python3.7/site-packages/numpy (version 1.15.0)
scipy:  /app/gpaw/software/venv/lib/python3.7/site-packages/scipy (version 1.1.0)
units:  Angstrom and eV
cores:  1

Input parameters:
  gpts: [56 48 40]
  maxiter: 150
  mixer: {backend: pulay,
          beta: None,
          method: separate,
          nmaxold: None,
          weight: None}
  xc: PBE

System changes: positions, numbers, cell, pbc, initial_charges, initial_magmoms 

Initialize ...

Hf-setup:
  name: Hafnium
  id: d03a45b6fa1dd7f07e443d1513edf499
  Z: 72
  valence: 12
  core: 60
  charge: 0.0
  file: /app/gpaw/datasets/Hf.PBE
  cutoffs: 1.30(comp), 2.36(filt), 4.02(core), lmax=2
  valence states:
                energy  radius
    5s(2.00)   -66.831   1.397
    6s(2.00)    -5.097   1.397
    5p(6.00)   -35.599   1.307
    6p(0.00)    -1.401   1.307
    5d(2.00)    -2.699   1.334
    *d          24.513   1.334

  Using partial waves for Hf as LCAO basis

N-setup:
  name: Nitrogen
  id: 45c8c9c739e7b131496b9fd2deb94bff
  Z: 7
  valence: 5
  core: 2
  charge: 0.0
  file: /app/gpaw/datasets/N.PBE
  cutoffs: 0.58(comp), 1.11(filt), 0.96(core), lmax=2
  valence states:
                energy  radius
    2s(2.00)   -18.583   0.603
    2p(3.00)    -7.089   0.529
    *s           8.629   0.603
    *p          20.123   0.529
    *d           0.000   0.577

  Using partial waves for N as LCAO basis

C-setup:
  name: Carbon
  id: 2f012631b351e3618121587a96c50fca
  Z: 6
  valence: 4
  core: 2
  charge: 0.0
  file: /app/gpaw/datasets/C.PBE
  cutoffs: 0.64(comp), 1.14(filt), 1.14(core), lmax=2
  valence states:
                energy  radius
    2s(2.00)   -13.751   0.635
    2p(2.00)    -5.285   0.635
    *s          13.461   0.635
    *p          21.927   0.635
    *d           0.000   0.635

  Using partial waves for C as LCAO basis

Reference energy: -412395.464894

Spin-paired calculation

Occupation numbers:
  Fermi-Dirac: width=0.0000 eV

Convergence criteria:
  Maximum total energy change: 0.0005 eV / electron
  Maximum integral of absolute density change: 0.0001 electrons
  Maximum integral of absolute eigenstate change: 4e-08 eV^2
  Maximum number of iterations: 150

Symmetries present (total): 1

  ( 1  0  0)
  ( 0  1  0)
  ( 0  0  1)

1 k-point (Gamma)
1 k-point in the irreducible part of the Brillouin zone
       k-points in crystal coordinates                weights
   0:     0.00000000    0.00000000    0.00000000          1/1

Wave functions: Uniform real-space grid
  Kinetic energy operator: 6*3+1=19 point O(h^6) finite-difference Laplacian
  ScaLapack parameters: grid=1x1, blocksize=None 

Eigensolver
   Davidson(niter=1, smin=None, normalize=True) 

Densities:
  Coarse grid: 56*48*40 grid
  Fine grid: 112*96*80 grid
  Total Charge: 0.000000 

Density mixing:
  Method: separate
  Backend: pulay
  Linear mixing parameter: 0.25
  Mixing with 3 old densities
  No damping of long wave oscillations 

Hamiltonian:
  XC and Coulomb potentials evaluated on a 112*96*80 grid
  Using the PBE Exchange-Correlation functional
  Interpolation: tri-quintic (5. degree polynomial)
  Poisson solver: Jacobi solver with 5 multi-grid levels
    Coarsest grid: 7 x 6 x 5 points
    Stencil: 6*3+1=19 point O(h^6) finite-difference Laplacian
    Max iterations: 1000
    Tolerance: 2.000000e-10 

Memory estimate:
  Process memory now: 236.63 MiB
  Calculator: 111.12 MiB
    Density: 42.40 MiB
      Arrays: 20.61 MiB
      Localized functions: 17.17 MiB
      Mixer: 4.61 MiB
    Hamiltonian: 30.06 MiB
      Arrays: 13.48 MiB
      XC: 0.00 MiB
      Poisson: 15.43 MiB
      vbar: 1.15 MiB
    Wavefunctions: 38.66 MiB
      Arrays psit_nG: 16.15 MiB
      Eigensolver: 20.03 MiB
      Projections: 0.01 MiB
      Projectors: 2.47 MiB

Total number of cores used: 1

Number of atoms: 3
Number of atomic orbitals: 21
Number of bands in calculation: 21
Bands to converge: occupied states only
Number of valence electrons: 21

... initialized

Initializing position-dependent things.

Density initialized from atomic densities
Creating initial wave functions:
  21 bands from LCAO basis set

      .--------------------.  
     /|                    |  
    / |                    |  
   /  |                    |  
  /   |                    |  
 *    |      Hf  C         |  
 |    |                    |  
 |    .----N---------------.  
 |   /                    /   
 |  /                    /    
 | /                    /     
 |/                    /      
 *--------------------*       

Positions:
   0 Hf     3.400000    4.700000    3.000000    ( 0.0000,  0.0000,  0.0000)
   1 N      3.400000    2.800000    3.000000    ( 0.0000,  0.0000,  0.0000)
   2 C      5.100000    4.700000    3.000000    ( 0.0000,  0.0000,  0.0000)

Unit cell:
           periodic     x           y           z      points  spacing
  1. axis:    no     8.500000    0.000000    0.000000    56     0.1518
  2. axis:    no     0.000000    7.500000    0.000000    48     0.1562
  3. axis:    no     0.000000    0.000000    6.000000    40     0.1500

  Lengths:   8.500000   7.500000   6.000000
  Angles:   90.000000  90.000000  90.000000

Effective grid spacing dv^(1/3) = 0.1527

                     log10-error:    total        iterations:
           time      wfs    density  energy       fermi  poisson
iter:   1  15:39:17  +2.61   +inf   -17.690017    0      15     
iter:   2  15:39:18  +0.97   +inf   -18.207971    0             
iter:   3  15:39:18  +0.39   +inf   -18.344471    0             
iter:   4  15:39:21  +0.34  -0.72   -14.756932    0      9      
iter:   5  15:39:24  +0.40  -0.87   -14.441143    0      8      
iter:   6  15:39:26  +0.34  -0.95   -13.608383    0      8      
iter:   7  15:39:29  +0.10  -1.23   -13.556203    0      8      
iter:   8  15:39:32  +0.12  -1.44   -13.559290    0      7      
iter:   9  15:39:34  -0.41  -1.69   -13.565158    0      7      
iter:  10  15:39:36  -0.36  -2.04   -13.567989    0      5      
iter:  11  15:39:39  -1.05  -2.30   -13.569186    0      5      
iter:  12  15:39:41  -1.20  -2.48   -13.569733    0      5      
iter:  13  15:39:43  -1.69  -2.73   -13.570090    0      4      
iter:  14  15:39:45  -1.83  -2.80   -13.570239    0      5      
iter:  15  15:39:48  -2.31  -3.14   -13.570271    0      4      
iter:  16  15:39:50  -2.49  -3.40   -13.570198    0      3      
iter:  17  15:39:52  -2.95  -3.61   -13.570282    0      3      
iter:  18  15:39:54  -3.00  -3.70   -13.570387    0      3      
iter:  19  15:39:56  -3.45  -3.79   -13.570370    0      3      
iter:  20  15:39:58  -3.59  -4.01   -13.570407    0      3      
iter:  21  15:40:00  -3.98  -4.49   -13.570233    0      1      
iter:  22  15:40:01  -4.10  -4.49   -13.570435    0      1      
iter:  23  15:40:03  -4.48  -4.58   -13.570402    0      2      
iter:  24  15:40:05  -4.66  -4.69   -13.570417    0      2      
iter:  25  15:40:07  -4.97  -4.86   -13.570402    0      1      
iter:  26  15:40:09  -5.15  -5.09   -13.570419    0      1      
iter:  27  15:40:10  -5.46  -5.22   -13.570392    0      1      
iter:  28  15:40:12  -5.66  -5.36   -13.570392    0      1      
iter:  29  15:40:14  -5.92  -5.41   -13.570393    0      1      
iter:  30  15:40:15  -6.15  -5.58   -13.570395    0      1      
iter:  31  15:40:17  -6.37  -5.60   -13.570392    0      1      
iter:  32  15:40:19  -6.65  -5.59   -13.570388    0      1      
iter:  33  15:40:21  -6.81  -5.55   -13.570368    0      1      
iter:  34  15:40:22  -6.93  -5.33   -13.570411    0      1      
iter:  35  15:40:24  -7.29  -5.52   -13.570403    0      1      
iter:  36  15:40:26  -7.72  -5.85   -13.570399    0      1      

Converged after 36 iterations.

Dipole moment: (-0.908584, 1.336131, -0.000000) |e|*Ang

Energy contributions relative to reference atoms: (reference = -412395.464894)

Kinetic:        +28.182539
Potential:      -22.214459
External:        +0.000000
XC:             -19.492929
Entropy (-ST):   +0.000000
Local:           -0.045550
--------------------------
Free energy:    -13.570399
Extrapolated:   -13.570399

Fermi level: -4.65102

 Band  Eigenvalues  Occupancy
    0    -64.81628    2.00000
    1    -34.41147    2.00000
    2    -34.03869    2.00000
    3    -33.83260    2.00000
    4    -15.65339    2.00000
    5    -11.91165    2.00000
    6     -6.38418    2.00000
    7     -5.31335    2.00000
    8     -5.20465    2.00000
    9     -4.94536    2.00000
   10     -4.65102    1.00000
   11     -3.39363    0.00000
   12     -2.46209    0.00000
   13     -0.66092    0.00000
   14     -0.13219    0.00000
   15      0.87080    0.00000
   16      1.31772    0.00000
   17      2.17855    0.00000
   18      3.77938    0.00000
   19      3.94058    0.00000
   20      4.44224    0.00000

Writing to 3_38249_Pm_PBE_xx1_9000.gpw (mode='all')

Timing:                              incl.     excl.
-----------------------------------------------------------
Hamiltonian:                         2.962     0.000   0.0% |
 Atomic:                             0.197     0.001   0.0% |
  XC Correction:                     0.196     0.196   0.3% |
 Calculate atomic Hamiltonians:      0.005     0.005   0.0% |
 Communicate:                        0.000     0.000   0.0% |
 Hartree integrate/restrict:         0.011     0.011   0.0% |
 Initialize Hamiltonian:             0.000     0.000   0.0% |
 Poisson:                            2.043     2.043   2.7% ||
 XC 3D grid:                         0.702     0.702   0.9% |
 vbar:                               0.004     0.004   0.0% |
LCAO initialization:                 0.676     0.571   0.8% |
 LCAO eigensolver:                   0.032     0.000   0.0% |
  Calculate projections:             0.000     0.000   0.0% |
  DenseAtomicCorrection:             0.000     0.000   0.0% |
  Distribute overlap matrix:         0.000     0.000   0.0% |
  Orbital Layouts:                   0.000     0.000   0.0% |
  Potential matrix:                  0.032     0.032   0.0% |
 LCAO to grid:                       0.070     0.070   0.1% |
 Set positions (LCAO WFS):           0.004     0.000   0.0% |
  Basic WFS set positions:           0.000     0.000   0.0% |
  Basis functions set positions:     0.000     0.000   0.0% |
  TCI: Calculate S, T, P:            0.003     0.003   0.0% |
SCF-cycle:                          69.748     0.015   0.0% |
 Davidson:                          23.765     4.622   6.2% |-|
  Apply hamiltonian:                 1.840     1.840   2.5% ||
  Subspace diag:                     6.634     0.004   0.0% |
   calc_h_matrix:                    3.246     1.410   1.9% ||
    Apply hamiltonian:               1.836     1.836   2.5% ||
   diagonalize:                      0.008     0.008   0.0% |
   rotate_psi:                       3.376     3.376   4.5% |-|
  calc. matrices:                    7.288     5.444   7.3% |--|
   Apply hamiltonian:                1.844     1.844   2.5% ||
  diagonalize:                       0.028     0.028   0.0% |
  rotate_psi:                        3.353     3.353   4.5% |-|
 Density:                            0.891     0.001   0.0% |
  Atomic density matrices:           0.023     0.023   0.0% |
  Mix:                               0.623     0.623   0.8% |
  Multipole moments:                 0.006     0.006   0.0% |
  Pseudo density:                    0.239     0.238   0.3% |
   Symmetrize density:               0.001     0.001   0.0% |
 Hamiltonian:                       45.012     0.004   0.0% |
  Atomic:                            6.496     0.029   0.0% |
   XC Correction:                    6.467     6.467   8.7% |--|
  Calculate atomic Hamiltonians:     0.153     0.153   0.2% |
  Communicate:                       0.000     0.000   0.0% |
  Hartree integrate/restrict:        0.362     0.362   0.5% |
  Poisson:                          14.709    14.709  19.8% |-------|
  XC 3D grid:                       23.223    23.223  31.2% |-----------|
  vbar:                              0.066     0.066   0.1% |
 Orthonormalize:                     0.065     0.000   0.0% |
  calc_s_matrix:                     0.022     0.022   0.0% |
  inverse-cholesky:                  0.000     0.000   0.0% |
  projections:                       0.015     0.015   0.0% |
  rotate_psi_s:                      0.029     0.029   0.0% |
Set symmetry:                        0.001     0.001   0.0% |
Other:                               0.926     0.926   1.2% |
-----------------------------------------------------------
Total:                                        74.313 100.0%

Memory usage: 236.63 MiB
Date: Mon Aug 20 15:40:26 2018
