
  ___ ___ ___ _ _ _  
 |   |   |_  | | | | 
 | | | | | . | | | | 
 |__ |  _|___|_____|  1.4.0
 |___|_|             

User:   ???@3fe09ff0504a
Date:   Mon Aug 20 15:37:57 2018
Arch:   x86_64
Pid:    417
Python: 3.7.0
gpaw:   /app/gpaw/software/venv/lib/python3.7/site-packages/gpaw
_gpaw:  /app/gpaw/software/venv/lib/python3.7/site-packages/
        _gpaw.cpython-37m-x86_64-linux-gnu.so
ase:    /app/gpaw/software/venv/lib/python3.7/site-packages/ase (version 3.16.2)
numpy:  /app/gpaw/software/venv/lib/python3.7/site-packages/numpy (version 1.15.0)
scipy:  /app/gpaw/software/venv/lib/python3.7/site-packages/scipy (version 1.1.0)
units:  Angstrom and eV
cores:  1

Input parameters:
  gpts: [56 48 40]
  maxiter: 150
  mixer: {backend: pulay,
          beta: None,
          method: separate,
          nmaxold: None,
          weight: None}
  xc: PBE

System changes: positions, numbers, cell, pbc, initial_charges, initial_magmoms 

Initialize ...

Hf-setup:
  name: Hafnium
  id: d03a45b6fa1dd7f07e443d1513edf499
  Z: 72
  valence: 12
  core: 60
  charge: 0.0
  file: /app/gpaw/datasets/Hf.PBE
  cutoffs: 1.30(comp), 2.36(filt), 4.02(core), lmax=2
  valence states:
                energy  radius
    5s(2.00)   -66.831   1.397
    6s(2.00)    -5.097   1.397
    5p(6.00)   -35.599   1.307
    6p(0.00)    -1.401   1.307
    5d(2.00)    -2.699   1.334
    *d          24.513   1.334

  Using partial waves for Hf as LCAO basis

N-setup:
  name: Nitrogen
  id: 45c8c9c739e7b131496b9fd2deb94bff
  Z: 7
  valence: 5
  core: 2
  charge: 0.0
  file: /app/gpaw/datasets/N.PBE
  cutoffs: 0.58(comp), 1.11(filt), 0.96(core), lmax=2
  valence states:
                energy  radius
    2s(2.00)   -18.583   0.603
    2p(3.00)    -7.089   0.529
    *s           8.629   0.603
    *p          20.123   0.529
    *d           0.000   0.577

  Using partial waves for N as LCAO basis

C-setup:
  name: Carbon
  id: 2f012631b351e3618121587a96c50fca
  Z: 6
  valence: 4
  core: 2
  charge: 0.0
  file: /app/gpaw/datasets/C.PBE
  cutoffs: 0.64(comp), 1.14(filt), 1.14(core), lmax=2
  valence states:
                energy  radius
    2s(2.00)   -13.751   0.635
    2p(2.00)    -5.285   0.635
    *s          13.461   0.635
    *p          21.927   0.635
    *d           0.000   0.635

  Using partial waves for C as LCAO basis

Reference energy: -412395.464894

Spin-paired calculation

Occupation numbers:
  Fermi-Dirac: width=0.0000 eV

Convergence criteria:
  Maximum total energy change: 0.0005 eV / electron
  Maximum integral of absolute density change: 0.0001 electrons
  Maximum integral of absolute eigenstate change: 4e-08 eV^2
  Maximum number of iterations: 150

Symmetries present (total): 1

  ( 1  0  0)
  ( 0  1  0)
  ( 0  0  1)

1 k-point (Gamma)
1 k-point in the irreducible part of the Brillouin zone
       k-points in crystal coordinates                weights
   0:     0.00000000    0.00000000    0.00000000          1/1

Wave functions: Uniform real-space grid
  Kinetic energy operator: 6*3+1=19 point O(h^6) finite-difference Laplacian
  ScaLapack parameters: grid=1x1, blocksize=None 

Eigensolver
   Davidson(niter=1, smin=None, normalize=True) 

Densities:
  Coarse grid: 56*48*40 grid
  Fine grid: 112*96*80 grid
  Total Charge: 0.000000 

Density mixing:
  Method: separate
  Backend: pulay
  Linear mixing parameter: 0.25
  Mixing with 3 old densities
  No damping of long wave oscillations 

Hamiltonian:
  XC and Coulomb potentials evaluated on a 112*96*80 grid
  Using the PBE Exchange-Correlation functional
  Interpolation: tri-quintic (5. degree polynomial)
  Poisson solver: Jacobi solver with 5 multi-grid levels
    Coarsest grid: 7 x 6 x 5 points
    Stencil: 6*3+1=19 point O(h^6) finite-difference Laplacian
    Max iterations: 1000
    Tolerance: 2.000000e-10 

Memory estimate:
  Process memory now: 230.46 MiB
  Calculator: 111.12 MiB
    Density: 42.40 MiB
      Arrays: 20.61 MiB
      Localized functions: 17.17 MiB
      Mixer: 4.61 MiB
    Hamiltonian: 30.06 MiB
      Arrays: 13.48 MiB
      XC: 0.00 MiB
      Poisson: 15.43 MiB
      vbar: 1.15 MiB
    Wavefunctions: 38.66 MiB
      Arrays psit_nG: 16.15 MiB
      Eigensolver: 20.03 MiB
      Projections: 0.01 MiB
      Projectors: 2.47 MiB

Total number of cores used: 1

Number of atoms: 3
Number of atomic orbitals: 21
Number of bands in calculation: 21
Bands to converge: occupied states only
Number of valence electrons: 21

... initialized

Initializing position-dependent things.

Density initialized from atomic densities
Creating initial wave functions:
  21 bands from LCAO basis set

      .--------------------.  
     /|                    |  
    / |                    |  
   /  |                    |  
  /   |                    |  
 *    |      Hf  C         |  
 |    |                    |  
 |    .----N---------------.  
 |   /                    /   
 |  /                    /    
 | /                    /     
 |/                    /      
 *--------------------*       

Positions:
   0 Hf     3.400000    4.675000    3.000000    ( 0.0000,  0.0000,  0.0000)
   1 N      3.400000    2.825000    3.000000    ( 0.0000,  0.0000,  0.0000)
   2 C      5.100000    4.675000    3.000000    ( 0.0000,  0.0000,  0.0000)

Unit cell:
           periodic     x           y           z      points  spacing
  1. axis:    no     8.500000    0.000000    0.000000    56     0.1518
  2. axis:    no     0.000000    7.500000    0.000000    48     0.1562
  3. axis:    no     0.000000    0.000000    6.000000    40     0.1500

  Lengths:   8.500000   7.500000   6.000000
  Angles:   90.000000  90.000000  90.000000

Effective grid spacing dv^(1/3) = 0.1527

                     log10-error:    total        iterations:
           time      wfs    density  energy       fermi  poisson
iter:   1  15:38:03  +2.61   +inf   -17.796777    0      15     
iter:   2  15:38:03  +0.98   +inf   -18.337063    0             
iter:   3  15:38:04  +0.40   +inf   -18.478964    0             
iter:   4  15:38:07  +0.35  -0.72   -14.963139    0      9      
iter:   5  15:38:09  +0.39  -0.85   -14.503814    0      8      
iter:   6  15:38:12  +0.34  -0.96   -13.691450    0      8      
iter:   7  15:38:15  +0.12  -1.24   -13.633804    0      8      
iter:   8  15:38:17  +0.15  -1.46   -13.641583    0      7      
iter:   9  15:38:20  -0.42  -1.72   -13.650944    0      7      
iter:  10  15:38:22  -0.36  -2.04   -13.653098    0      5      
iter:  11  15:38:25  -1.07  -2.29   -13.654207    0      5      
iter:  12  15:38:27  -1.21  -2.48   -13.654681    0      5      
iter:  13  15:38:29  -1.73  -2.78   -13.655067    0      4      
iter:  14  15:38:31  -1.82  -2.82   -13.655268    0      5      
iter:  15  15:38:33  -2.33  -3.20   -13.655298    0      4      
iter:  16  15:38:35  -2.47  -3.48   -13.655262    0      3      
iter:  17  15:38:37  -2.97  -3.66   -13.655344    0      3      
iter:  18  15:38:39  -2.98  -3.72   -13.655451    0      3      
iter:  19  15:38:41  -3.48  -3.82   -13.655418    0      3      
iter:  20  15:38:43  -3.65  -4.24   -13.655401    0      2      
iter:  21  15:38:45  -3.94  -4.28   -13.655413    0      2      
iter:  22  15:38:47  -4.18  -4.51   -13.655498    0      1      
iter:  23  15:38:49  -4.42  -4.53   -13.655440    0      2      
iter:  24  15:38:51  -4.71  -4.66   -13.655473    0      2      
iter:  25  15:38:52  -4.94  -5.02   -13.655360    0      1      
iter:  26  15:38:54  -5.18  -5.22   -13.655456    0      1      
iter:  27  15:38:56  -5.41  -5.43   -13.655425    0      1      
iter:  28  15:38:58  -5.67  -5.44   -13.655439    0      1      
iter:  29  15:38:59  -5.88  -5.54   -13.655436    0      1      
iter:  30  15:39:01  -6.16  -5.69   -13.655432    0      1      
iter:  31  15:39:03  -6.32  -5.74   -13.655433    0      1      
iter:  32  15:39:05  -6.64  -6.01   -13.655430    0      1      
iter:  33  15:39:06  -6.78  -6.19   -13.655425    0      1      
iter:  34  15:39:08  -7.09  -6.26   -13.655427    0      1      
iter:  35  15:39:10  -7.23  -6.44   -13.655426    0      1      
iter:  36  15:39:12  -7.54  -6.54   -13.655424    0      1      

Converged after 36 iterations.

Dipole moment: (-0.900979, 1.293339, 0.000000) |e|*Ang

Energy contributions relative to reference atoms: (reference = -412395.464894)

Kinetic:        +31.949208
Potential:      -25.379831
External:        +0.000000
XC:             -20.200641
Entropy (-ST):   +0.000000
Local:           -0.024161
--------------------------
Free energy:    -13.655424
Extrapolated:   -13.655424

Fermi level: -4.61419

 Band  Eigenvalues  Occupancy
    0    -64.68983    2.00000
    1    -34.31478    2.00000
    2    -33.91633    2.00000
    3    -33.80214    2.00000
    4    -15.65917    2.00000
    5    -11.90854    2.00000
    6     -6.50633    2.00000
    7     -5.34933    2.00000
    8     -5.23708    2.00000
    9     -5.03972    2.00000
   10     -4.61419    1.00000
   11     -3.34379    0.00000
   12     -2.41573    0.00000
   13     -0.56984    0.00000
   14     -0.04299    0.00000
   15      1.03460    0.00000
   16      1.43137    0.00000
   17      2.27701    0.00000
   18      3.83491    0.00000
   19      4.03032    0.00000
   20      4.45766    0.00000

Writing to 3_38249_Pm_PBE_xx1_85.gpw (mode='all')

Timing:                              incl.     excl.
-----------------------------------------------------------
Hamiltonian:                         2.962     0.000   0.0% |
 Atomic:                             0.197     0.001   0.0% |
  XC Correction:                     0.196     0.196   0.3% |
 Calculate atomic Hamiltonians:      0.005     0.005   0.0% |
 Communicate:                        0.000     0.000   0.0% |
 Hartree integrate/restrict:         0.011     0.011   0.0% |
 Initialize Hamiltonian:             0.000     0.000   0.0% |
 Poisson:                            2.043     2.043   2.8% ||
 XC 3D grid:                         0.703     0.703   0.9% |
 vbar:                               0.004     0.004   0.0% |
LCAO initialization:                 0.685     0.580   0.8% |
 LCAO eigensolver:                   0.033     0.000   0.0% |
  Calculate projections:             0.000     0.000   0.0% |
  DenseAtomicCorrection:             0.000     0.000   0.0% |
  Distribute overlap matrix:         0.000     0.000   0.0% |
  Orbital Layouts:                   0.000     0.000   0.0% |
  Potential matrix:                  0.032     0.032   0.0% |
 LCAO to grid:                       0.068     0.068   0.1% |
 Set positions (LCAO WFS):           0.004     0.000   0.0% |
  Basic WFS set positions:           0.000     0.000   0.0% |
  Basis functions set positions:     0.000     0.000   0.0% |
  TCI: Calculate S, T, P:            0.003     0.003   0.0% |
SCF-cycle:                          69.680     0.015   0.0% |
 Davidson:                          23.640     4.592   6.2% |-|
  Apply hamiltonian:                 1.841     1.841   2.5% ||
  Subspace diag:                     6.623     0.004   0.0% |
   calc_h_matrix:                    3.246     1.406   1.9% ||
    Apply hamiltonian:               1.839     1.839   2.5% ||
   diagonalize:                      0.008     0.008   0.0% |
   rotate_psi:                       3.366     3.366   4.5% |-|
  calc. matrices:                    7.207     5.366   7.2% |--|
   Apply hamiltonian:                1.841     1.841   2.5% ||
  diagonalize:                       0.028     0.028   0.0% |
  rotate_psi:                        3.349     3.349   4.5% |-|
 Density:                            0.897     0.001   0.0% |
  Atomic density matrices:           0.023     0.023   0.0% |
  Mix:                               0.628     0.628   0.8% |
  Multipole moments:                 0.006     0.006   0.0% |
  Pseudo density:                    0.240     0.240   0.3% |
   Symmetrize density:               0.001     0.001   0.0% |
 Hamiltonian:                       45.063     0.004   0.0% |
  Atomic:                            6.493     0.029   0.0% |
   XC Correction:                    6.465     6.465   8.7% |--|
  Calculate atomic Hamiltonians:     0.153     0.153   0.2% |
  Communicate:                       0.000     0.000   0.0% |
  Hartree integrate/restrict:        0.364     0.364   0.5% |
  Poisson:                          14.721    14.721  19.8% |-------|
  XC 3D grid:                       23.263    23.263  31.3% |------------|
  vbar:                              0.065     0.065   0.1% |
 Orthonormalize:                     0.065     0.000   0.0% |
  calc_s_matrix:                     0.022     0.022   0.0% |
  inverse-cholesky:                  0.000     0.000   0.0% |
  projections:                       0.015     0.015   0.0% |
  rotate_psi_s:                      0.028     0.028   0.0% |
Set symmetry:                        0.001     0.001   0.0% |
Other:                               0.936     0.936   1.3% ||
-----------------------------------------------------------
Total:                                        74.264 100.0%

Memory usage: 236.63 MiB
Date: Mon Aug 20 15:39:12 2018
