
  ___ ___ ___ _ _ _  
 |   |   |_  | | | | 
 | | | | | . | | | | 
 |__ |  _|___|_____|  1.4.0
 |___|_|             

User:   ???@3fe09ff0504a
Date:   Mon Aug 20 15:07:21 2018
Arch:   x86_64
Pid:    254
Python: 3.7.0
gpaw:   /app/gpaw/software/venv/lib/python3.7/site-packages/gpaw
_gpaw:  /app/gpaw/software/venv/lib/python3.7/site-packages/
        _gpaw.cpython-37m-x86_64-linux-gnu.so
ase:    /app/gpaw/software/venv/lib/python3.7/site-packages/ase (version 3.16.2)
numpy:  /app/gpaw/software/venv/lib/python3.7/site-packages/numpy (version 1.15.0)
scipy:  /app/gpaw/software/venv/lib/python3.7/site-packages/scipy (version 1.1.0)
units:  Angstrom and eV
cores:  1

Input parameters:
  gpts: [56 48 40]
  maxiter: 150
  mixer: {backend: pulay,
          beta: None,
          method: separate,
          nmaxold: None,
          weight: None}
  xc: PBE

System changes: positions, numbers, cell, pbc, initial_charges, initial_magmoms 

Initialize ...

Hf-setup:
  name: Hafnium
  id: d03a45b6fa1dd7f07e443d1513edf499
  Z: 72
  valence: 12
  core: 60
  charge: 0.0
  file: /app/gpaw/datasets/Hf.PBE
  cutoffs: 1.30(comp), 2.36(filt), 4.02(core), lmax=2
  valence states:
                energy  radius
    5s(2.00)   -66.831   1.397
    6s(2.00)    -5.097   1.397
    5p(6.00)   -35.599   1.307
    6p(0.00)    -1.401   1.307
    5d(2.00)    -2.699   1.334
    *d          24.513   1.334

  Using partial waves for Hf as LCAO basis

N-setup:
  name: Nitrogen
  id: 45c8c9c739e7b131496b9fd2deb94bff
  Z: 7
  valence: 5
  core: 2
  charge: 0.0
  file: /app/gpaw/datasets/N.PBE
  cutoffs: 0.58(comp), 1.11(filt), 0.96(core), lmax=2
  valence states:
                energy  radius
    2s(2.00)   -18.583   0.603
    2p(3.00)    -7.089   0.529
    *s           8.629   0.603
    *p          20.123   0.529
    *d           0.000   0.577

  Using partial waves for N as LCAO basis

C-setup:
  name: Carbon
  id: 2f012631b351e3618121587a96c50fca
  Z: 6
  valence: 4
  core: 2
  charge: 0.0
  file: /app/gpaw/datasets/C.PBE
  cutoffs: 0.64(comp), 1.14(filt), 1.14(core), lmax=2
  valence states:
                energy  radius
    2s(2.00)   -13.751   0.635
    2p(2.00)    -5.285   0.635
    *s          13.461   0.635
    *p          21.927   0.635
    *d           0.000   0.635

  Using partial waves for C as LCAO basis

Reference energy: -412395.464894

Spin-paired calculation

Occupation numbers:
  Fermi-Dirac: width=0.0000 eV

Convergence criteria:
  Maximum total energy change: 0.0005 eV / electron
  Maximum integral of absolute density change: 0.0001 electrons
  Maximum integral of absolute eigenstate change: 4e-08 eV^2
  Maximum number of iterations: 150

Symmetries present (total): 1

  ( 1  0  0)
  ( 0  1  0)
  ( 0  0  1)

1 k-point (Gamma)
1 k-point in the irreducible part of the Brillouin zone
       k-points in crystal coordinates                weights
   0:     0.00000000    0.00000000    0.00000000          1/1

Wave functions: Uniform real-space grid
  Kinetic energy operator: 6*3+1=19 point O(h^6) finite-difference Laplacian
  ScaLapack parameters: grid=1x1, blocksize=None 

Eigensolver
   Davidson(niter=1, smin=None, normalize=True) 

Densities:
  Coarse grid: 56*48*40 grid
  Fine grid: 112*96*80 grid
  Total Charge: 0.000000 

Density mixing:
  Method: separate
  Backend: pulay
  Linear mixing parameter: 0.25
  Mixing with 3 old densities
  No damping of long wave oscillations 

Hamiltonian:
  XC and Coulomb potentials evaluated on a 112*96*80 grid
  Using the PBE Exchange-Correlation functional
  Interpolation: tri-quintic (5. degree polynomial)
  Poisson solver: Jacobi solver with 5 multi-grid levels
    Coarsest grid: 7 x 6 x 5 points
    Stencil: 6*3+1=19 point O(h^6) finite-difference Laplacian
    Max iterations: 1000
    Tolerance: 2.000000e-10 

Memory estimate:
  Process memory now: 246.69 MiB
  Calculator: 111.12 MiB
    Density: 42.40 MiB
      Arrays: 20.61 MiB
      Localized functions: 17.17 MiB
      Mixer: 4.61 MiB
    Hamiltonian: 30.06 MiB
      Arrays: 13.48 MiB
      XC: 0.00 MiB
      Poisson: 15.43 MiB
      vbar: 1.15 MiB
    Wavefunctions: 38.66 MiB
      Arrays psit_nG: 16.15 MiB
      Eigensolver: 20.03 MiB
      Projections: 0.01 MiB
      Projectors: 2.47 MiB

Total number of cores used: 1

Number of atoms: 3
Number of atomic orbitals: 21
Number of bands in calculation: 21
Bands to converge: occupied states only
Number of valence electrons: 21

... initialized

Initializing position-dependent things.

Density initialized from atomic densities
Creating initial wave functions:
  21 bands from LCAO basis set

      .--------------------.  
     /|                    |  
    / |                    |  
   /  |                    |  
  /   |                    |  
 *    |                    |  
 |    |    NHf   C         |  
 |    .--------------------.  
 |   /                    /   
 |  /                    /    
 | /                    /     
 |/                    /      
 *--------------------*       

Positions:
   0 Hf     3.400000    4.500000    3.000000    ( 0.0000,  0.0000,  0.0000)
   1 N      3.400000    3.000000    3.000000    ( 0.0000,  0.0000,  0.0000)
   2 C      5.100000    4.500000    3.000000    ( 0.0000,  0.0000,  0.0000)

Unit cell:
           periodic     x           y           z      points  spacing
  1. axis:    no     8.500000    0.000000    0.000000    56     0.1518
  2. axis:    no     0.000000    7.500000    0.000000    48     0.1562
  3. axis:    no     0.000000    0.000000    6.000000    40     0.1500

  Lengths:   8.500000   7.500000   6.000000
  Angles:   90.000000  90.000000  90.000000

Effective grid spacing dv^(1/3) = 0.1527

                     log10-error:    total        iterations:
           time      wfs    density  energy       fermi  poisson
iter:   1  15:07:27  +2.59   +inf   -15.197361    0      15     
iter:   2  15:07:27  +1.18   +inf   -16.038386    0             
iter:   3  15:07:28  +0.55   +inf   -16.248192    0             
iter:   4  15:07:31  +0.47  -0.70   -11.930735    0      9      
iter:   5  15:07:33  +0.47  -0.90   -11.112990    0      8      
iter:   6  15:07:36  +0.34  -1.06   -10.583177    0      8      
iter:   7  15:07:39  +0.22  -1.35   -10.600566    0      8      
iter:   8  15:07:41  +0.13  -1.59   -10.622724    0      7      
iter:   9  15:07:44  -0.39  -1.95   -10.626763    0      6      
iter:  10  15:07:46  -0.72  -2.50   -10.630043    0      5      
iter:  11  15:07:48  -1.04  -2.55   -10.631783    0      5      
iter:  12  15:07:51  -1.29  -2.71   -10.632434    0      5      
iter:  13  15:07:53  -1.71  -2.90   -10.632784    0      5      
iter:  14  15:07:55  -1.92  -3.21   -10.632888    0      3      
iter:  15  15:07:57  -2.24  -3.21   -10.633122    0      4      
iter:  16  15:07:59  -2.44  -3.42   -10.633167    0      4      
iter:  17  15:08:01  -2.80  -3.86   -10.633201    0      3      
iter:  18  15:08:03  -2.92  -3.86   -10.633227    0      3      
iter:  19  15:08:05  -3.28  -4.06   -10.633311    0      2      
iter:  20  15:08:07  -3.41  -4.08   -10.633309    0      2      
iter:  21  15:08:09  -3.77  -4.17   -10.633270    0      3      
iter:  22  15:08:11  -4.02  -4.40   -10.633335    0      2      
iter:  23  15:08:13  -4.25  -4.72   -10.633214    0      1      
iter:  24  15:08:14  -4.48  -4.75   -10.633276    0      2      
iter:  25  15:08:16  -4.74  -5.06   -10.633309    0      1      
iter:  26  15:08:18  -4.98  -5.27   -10.633271    0      1      
iter:  27  15:08:20  -5.23  -5.49   -10.633277    0      1      
iter:  28  15:08:21  -5.47  -5.56   -10.633257    0      1      
iter:  29  15:08:23  -5.71  -5.49   -10.633244    0      1      
iter:  30  15:08:25  -5.93  -5.32   -10.633266    0      1      
iter:  31  15:08:27  -6.19  -5.32   -10.633265    0      1      
iter:  32  15:08:28  -6.42  -5.32   -10.633249    0      1      
iter:  33  15:08:30  -6.64  -5.27   -10.633241    0      1      
iter:  34  15:08:32  -6.85  -5.19   -10.633289    0      1      
iter:  35  15:08:34  -7.13  -5.38   -10.633272    0      1      
iter:  36  15:08:35  -7.52  -5.49   -10.633277    0      1      

Converged after 36 iterations.

Dipole moment: (-0.865942, 0.864729, 0.000000) |e|*Ang

Energy contributions relative to reference atoms: (reference = -412395.464894)

Kinetic:        +82.020506
Potential:      -65.380831
External:        +0.000000
XC:             -27.675329
Entropy (-ST):   +0.000000
Local:           +0.402377
--------------------------
Free energy:    -10.633277
Extrapolated:   -10.633277

Fermi level: -4.18842

 Band  Eigenvalues  Occupancy
    0    -63.94604    2.00000
    1    -34.75939    2.00000
    2    -33.60128    2.00000
    3    -33.02257    2.00000
    4    -15.04896    2.00000
    5    -11.83232    2.00000
    6     -7.84203    2.00000
    7     -6.80671    2.00000
    8     -5.52567    2.00000
    9     -5.01894    2.00000
   10     -4.18842    1.00000
   11     -2.97959    0.00000
   12     -1.99928    0.00000
   13      0.04126    0.00000
   14      0.58598    0.00000
   15      2.39821    0.00000
   16      2.56667    0.00000
   17      2.78929    0.00000
   18      4.36683    0.00000
   19      4.59698    0.00000
   20      5.04909    0.00000

Writing to 3_38249_Pm_PBE_xx1_5000000000000004.gpw (mode='all')

Timing:                              incl.     excl.
-----------------------------------------------------------
Hamiltonian:                         2.965     0.000   0.0% |
 Atomic:                             0.196     0.001   0.0% |
  XC Correction:                     0.196     0.196   0.3% |
 Calculate atomic Hamiltonians:      0.005     0.005   0.0% |
 Communicate:                        0.000     0.000   0.0% |
 Hartree integrate/restrict:         0.013     0.013   0.0% |
 Initialize Hamiltonian:             0.000     0.000   0.0% |
 Poisson:                            2.042     2.042   2.8% ||
 XC 3D grid:                         0.706     0.706   1.0% |
 vbar:                               0.003     0.003   0.0% |
LCAO initialization:                 0.648     0.541   0.7% |
 LCAO eigensolver:                   0.034     0.000   0.0% |
  Calculate projections:             0.000     0.000   0.0% |
  DenseAtomicCorrection:             0.000     0.000   0.0% |
  Distribute overlap matrix:         0.000     0.000   0.0% |
  Orbital Layouts:                   0.000     0.000   0.0% |
  Potential matrix:                  0.033     0.033   0.0% |
 LCAO to grid:                       0.070     0.070   0.1% |
 Set positions (LCAO WFS):           0.004     0.000   0.0% |
  Basic WFS set positions:           0.000     0.000   0.0% |
  Basis functions set positions:     0.000     0.000   0.0% |
  TCI: Calculate S, T, P:            0.003     0.003   0.0% |
SCF-cycle:                          69.630     0.015   0.0% |
 Davidson:                          23.742     4.655   6.3% |--|
  Apply hamiltonian:                 1.838     1.838   2.5% ||
  Subspace diag:                     6.618     0.004   0.0% |
   calc_h_matrix:                    3.239     1.402   1.9% ||
    Apply hamiltonian:               1.837     1.837   2.5% ||
   diagonalize:                      0.008     0.008   0.0% |
   rotate_psi:                       3.367     3.367   4.5% |-|
  calc. matrices:                    7.253     5.412   7.3% |--|
   Apply hamiltonian:                1.841     1.841   2.5% ||
  diagonalize:                       0.028     0.028   0.0% |
  rotate_psi:                        3.350     3.350   4.5% |-|
 Density:                            0.895     0.001   0.0% |
  Atomic density matrices:           0.023     0.023   0.0% |
  Mix:                               0.626     0.626   0.8% |
  Multipole moments:                 0.006     0.006   0.0% |
  Pseudo density:                    0.239     0.239   0.3% |
   Symmetrize density:               0.001     0.001   0.0% |
 Hamiltonian:                       44.913     0.004   0.0% |
  Atomic:                            6.518     0.029   0.0% |
   XC Correction:                    6.490     6.490   8.7% |--|
  Calculate atomic Hamiltonians:     0.154     0.154   0.2% |
  Communicate:                       0.000     0.000   0.0% |
  Hartree integrate/restrict:        0.364     0.364   0.5% |
  Poisson:                          14.582    14.582  19.7% |-------|
  XC 3D grid:                       23.225    23.225  31.3% |------------|
  vbar:                              0.066     0.066   0.1% |
 Orthonormalize:                     0.066     0.000   0.0% |
  calc_s_matrix:                     0.022     0.022   0.0% |
  inverse-cholesky:                  0.000     0.000   0.0% |
  projections:                       0.015     0.015   0.0% |
  rotate_psi_s:                      0.029     0.029   0.0% |
Set symmetry:                        0.001     0.001   0.0% |
Other:                               0.937     0.937   1.3% ||
-----------------------------------------------------------
Total:                                        74.182 100.0%

Memory usage: 246.69 MiB
Date: Mon Aug 20 15:08:35 2018
