
  ___ ___ ___ _ _ _  
 |   |   |_  | | | | 
 | | | | | . | | | | 
 |__ |  _|___|_____|  1.4.0
 |___|_|             

User:   ???@3fe09ff0504a
Date:   Mon Aug 20 15:11:07 2018
Arch:   x86_64
Pid:    254
Python: 3.7.0
gpaw:   /app/gpaw/software/venv/lib/python3.7/site-packages/gpaw
_gpaw:  /app/gpaw/software/venv/lib/python3.7/site-packages/
        _gpaw.cpython-37m-x86_64-linux-gnu.so
ase:    /app/gpaw/software/venv/lib/python3.7/site-packages/ase (version 3.16.2)
numpy:  /app/gpaw/software/venv/lib/python3.7/site-packages/numpy (version 1.15.0)
scipy:  /app/gpaw/software/venv/lib/python3.7/site-packages/scipy (version 1.1.0)
units:  Angstrom and eV
cores:  1

Input parameters:
  gpts: [56 48 40]
  maxiter: 150
  mixer: {backend: pulay,
          beta: None,
          method: separate,
          nmaxold: None,
          weight: None}
  xc: PBE

System changes: positions, numbers, cell, pbc, initial_charges, initial_magmoms 

Initialize ...

Hf-setup:
  name: Hafnium
  id: d03a45b6fa1dd7f07e443d1513edf499
  Z: 72
  valence: 12
  core: 60
  charge: 0.0
  file: /app/gpaw/datasets/Hf.PBE
  cutoffs: 1.30(comp), 2.36(filt), 4.02(core), lmax=2
  valence states:
                energy  radius
    5s(2.00)   -66.831   1.397
    6s(2.00)    -5.097   1.397
    5p(6.00)   -35.599   1.307
    6p(0.00)    -1.401   1.307
    5d(2.00)    -2.699   1.334
    *d          24.513   1.334

  Using partial waves for Hf as LCAO basis

N-setup:
  name: Nitrogen
  id: 45c8c9c739e7b131496b9fd2deb94bff
  Z: 7
  valence: 5
  core: 2
  charge: 0.0
  file: /app/gpaw/datasets/N.PBE
  cutoffs: 0.58(comp), 1.11(filt), 0.96(core), lmax=2
  valence states:
                energy  radius
    2s(2.00)   -18.583   0.603
    2p(3.00)    -7.089   0.529
    *s           8.629   0.603
    *p          20.123   0.529
    *d           0.000   0.577

  Using partial waves for N as LCAO basis

C-setup:
  name: Carbon
  id: 2f012631b351e3618121587a96c50fca
  Z: 6
  valence: 4
  core: 2
  charge: 0.0
  file: /app/gpaw/datasets/C.PBE
  cutoffs: 0.64(comp), 1.14(filt), 1.14(core), lmax=2
  valence states:
                energy  radius
    2s(2.00)   -13.751   0.635
    2p(2.00)    -5.285   0.635
    *s          13.461   0.635
    *p          21.927   0.635
    *d           0.000   0.635

  Using partial waves for C as LCAO basis

Reference energy: -412395.464894

Spin-paired calculation

Occupation numbers:
  Fermi-Dirac: width=0.0000 eV

Convergence criteria:
  Maximum total energy change: 0.0005 eV / electron
  Maximum integral of absolute density change: 0.0001 electrons
  Maximum integral of absolute eigenstate change: 4e-08 eV^2
  Maximum number of iterations: 150

Symmetries present (total): 1

  ( 1  0  0)
  ( 0  1  0)
  ( 0  0  1)

1 k-point (Gamma)
1 k-point in the irreducible part of the Brillouin zone
       k-points in crystal coordinates                weights
   0:     0.00000000    0.00000000    0.00000000          1/1

Wave functions: Uniform real-space grid
  Kinetic energy operator: 6*3+1=19 point O(h^6) finite-difference Laplacian
  ScaLapack parameters: grid=1x1, blocksize=None 

Eigensolver
   Davidson(niter=1, smin=None, normalize=True) 

Densities:
  Coarse grid: 56*48*40 grid
  Fine grid: 112*96*80 grid
  Total Charge: 0.000000 

Density mixing:
  Method: separate
  Backend: pulay
  Linear mixing parameter: 0.25
  Mixing with 3 old densities
  No damping of long wave oscillations 

Hamiltonian:
  XC and Coulomb potentials evaluated on a 112*96*80 grid
  Using the PBE Exchange-Correlation functional
  Interpolation: tri-quintic (5. degree polynomial)
  Poisson solver: Jacobi solver with 5 multi-grid levels
    Coarsest grid: 7 x 6 x 5 points
    Stencil: 6*3+1=19 point O(h^6) finite-difference Laplacian
    Max iterations: 1000
    Tolerance: 2.000000e-10 

Memory estimate:
  Process memory now: 253.27 MiB
  Calculator: 111.12 MiB
    Density: 42.40 MiB
      Arrays: 20.61 MiB
      Localized functions: 17.17 MiB
      Mixer: 4.61 MiB
    Hamiltonian: 30.06 MiB
      Arrays: 13.48 MiB
      XC: 0.00 MiB
      Poisson: 15.43 MiB
      vbar: 1.15 MiB
    Wavefunctions: 38.66 MiB
      Arrays psit_nG: 16.15 MiB
      Eigensolver: 20.03 MiB
      Projections: 0.01 MiB
      Projectors: 2.47 MiB

Total number of cores used: 1

Number of atoms: 3
Number of atomic orbitals: 21
Number of bands in calculation: 21
Bands to converge: occupied states only
Number of valence electrons: 21

... initialized

Initializing position-dependent things.

Density initialized from atomic densities
Creating initial wave functions:
  21 bands from LCAO basis set

      .--------------------.  
     /|                    |  
    / |                    |  
   /  |                    |  
  /   |                    |  
 *    |     Hf   C         |  
 |    |                    |  
 |    .----N---------------.  
 |   /                    /   
 |  /                    /    
 | /                    /     
 |/                    /      
 *--------------------*       

Positions:
   0 Hf     3.400000    4.575000    3.000000    ( 0.0000,  0.0000,  0.0000)
   1 N      3.400000    2.925000    3.000000    ( 0.0000,  0.0000,  0.0000)
   2 C      5.100000    4.575000    3.000000    ( 0.0000,  0.0000,  0.0000)

Unit cell:
           periodic     x           y           z      points  spacing
  1. axis:    no     8.500000    0.000000    0.000000    56     0.1518
  2. axis:    no     0.000000    7.500000    0.000000    48     0.1562
  3. axis:    no     0.000000    0.000000    6.000000    40     0.1500

  Lengths:   8.500000   7.500000   6.000000
  Angles:   90.000000  90.000000  90.000000

Effective grid spacing dv^(1/3) = 0.1527

                     log10-error:    total        iterations:
           time      wfs    density  energy       fermi  poisson
iter:   1  15:11:12  +2.59   +inf   -17.363908    0      15     
iter:   2  15:11:13  +1.08   +inf   -18.051675    0             
iter:   3  15:11:13  +0.48   +inf   -18.230236    0             
iter:   4  15:11:16  +0.41  -0.71   -14.500613    0      9      
iter:   5  15:11:19  +0.43  -0.85   -13.714381    0      8      
iter:   6  15:11:22  +0.32  -1.01   -13.025492    0      8      
iter:   7  15:11:24  +0.19  -1.29   -13.007024    0      8      
iter:   8  15:11:27  +0.21  -1.56   -13.020261    0      7      
iter:   9  15:11:29  -0.47  -1.89   -13.033175    0      7      
iter:  10  15:11:32  -0.44  -2.14   -13.034928    0      5      
iter:  11  15:11:34  -1.13  -2.38   -13.035428    0      5      
iter:  12  15:11:36  -1.23  -2.53   -13.035589    0      5      
iter:  13  15:11:38  -1.80  -2.89   -13.035860    0      4      
iter:  14  15:11:41  -1.82  -2.94   -13.036102    0      4      
iter:  15  15:11:43  -2.40  -3.21   -13.036127    0      4      
iter:  16  15:11:45  -2.48  -3.72   -13.036190    0      3      
iter:  17  15:11:47  -2.99  -3.75   -13.036209    0      3      
iter:  18  15:11:49  -3.06  -3.87   -13.036346    0      2      
iter:  19  15:11:51  -3.49  -3.91   -13.036262    0      3      
iter:  20  15:11:53  -3.68  -4.22   -13.036348    0      2      
iter:  21  15:11:54  -4.00  -4.46   -13.036298    0      1      
iter:  22  15:11:56  -4.16  -4.63   -13.036291    0      2      
iter:  23  15:11:58  -4.46  -4.92   -13.036213    0      1      
iter:  24  15:12:00  -4.64  -4.92   -13.036273    0      1      
iter:  25  15:12:01  -4.92  -4.88   -13.036221    0      1      
iter:  26  15:12:03  -5.08  -4.72   -13.036300    0      1      
iter:  27  15:12:05  -5.36  -4.78   -13.036309    0      1      
iter:  28  15:12:07  -5.60  -4.93   -13.036286    0      2      
iter:  29  15:12:08  -5.84  -5.11   -13.036211    0      1      
iter:  30  15:12:10  -6.05  -5.46   -13.036270    0      1      
iter:  31  15:12:12  -6.40  -5.60   -13.036268    0      1      
iter:  32  15:12:14  -6.61  -5.71   -13.036257    0      1      
iter:  33  15:12:15  -6.86  -5.86   -13.036259    0      1      
iter:  34  15:12:17  -7.11  -6.06   -13.036252    0      1      
iter:  35  15:12:19  -7.31  -6.27   -13.036249    0      1      
iter:  36  15:12:21  -7.57  -6.59   -13.036250    0      1      

Converged after 36 iterations.

Dipole moment: (-0.872388, 1.080183, -0.000000) |e|*Ang

Energy contributions relative to reference atoms: (reference = -412395.464894)

Kinetic:        +54.344270
Potential:      -43.665855
External:        +0.000000
XC:             -23.855774
Entropy (-ST):   +0.000000
Local:           +0.141109
--------------------------
Free energy:    -13.036250
Extrapolated:   -13.036250

Fermi level: -4.41164

 Band  Eigenvalues  Occupancy
    0    -64.18085    2.00000
    1    -34.01567    2.00000
    2    -33.87773    2.00000
    3    -33.38365    2.00000
    4    -15.48634    2.00000
    5    -11.88120    2.00000
    6     -7.14434    2.00000
    7     -5.97999    2.00000
    8     -5.39768    2.00000
    9     -5.09413    2.00000
   10     -4.41164    1.00000
   11     -3.14503    0.00000
   12     -2.19471    0.00000
   13     -0.20840    0.00000
   14      0.33080    0.00000
   15      1.79608    0.00000
   16      2.01434    0.00000
   17      2.62183    0.00000
   18      4.15246    0.00000
   19      4.47064    0.00000
   20      4.51995    0.00000

Writing to 3_38249_Pm_PBE_xx1_6500000000000006.gpw (mode='all')

Timing:                              incl.     excl.
-----------------------------------------------------------
Hamiltonian:                         2.964     0.000   0.0% |
 Atomic:                             0.197     0.001   0.0% |
  XC Correction:                     0.196     0.196   0.3% |
 Calculate atomic Hamiltonians:      0.005     0.005   0.0% |
 Communicate:                        0.000     0.000   0.0% |
 Hartree integrate/restrict:         0.011     0.011   0.0% |
 Initialize Hamiltonian:             0.000     0.000   0.0% |
 Poisson:                            2.044     2.044   2.8% ||
 XC 3D grid:                         0.704     0.704   1.0% |
 vbar:                               0.003     0.003   0.0% |
LCAO initialization:                 0.681     0.575   0.8% |
 LCAO eigensolver:                   0.034     0.000   0.0% |
  Calculate projections:             0.000     0.000   0.0% |
  DenseAtomicCorrection:             0.000     0.000   0.0% |
  Distribute overlap matrix:         0.000     0.000   0.0% |
  Orbital Layouts:                   0.000     0.000   0.0% |
  Potential matrix:                  0.033     0.033   0.0% |
 LCAO to grid:                       0.068     0.068   0.1% |
 Set positions (LCAO WFS):           0.004     0.000   0.0% |
  Basic WFS set positions:           0.000     0.000   0.0% |
  Basis functions set positions:     0.000     0.000   0.0% |
  TCI: Calculate S, T, P:            0.003     0.003   0.0% |
SCF-cycle:                          69.291     0.015   0.0% |
 Davidson:                          23.693     4.616   6.2% |-|
  Apply hamiltonian:                 1.842     1.842   2.5% ||
  Subspace diag:                     6.631     0.004   0.0% |
   calc_h_matrix:                    3.260     1.418   1.9% ||
    Apply hamiltonian:               1.842     1.842   2.5% ||
   diagonalize:                      0.008     0.008   0.0% |
   rotate_psi:                       3.360     3.360   4.5% |-|
  calc. matrices:                    7.243     5.403   7.3% |--|
   Apply hamiltonian:                1.840     1.840   2.5% ||
  diagonalize:                       0.028     0.028   0.0% |
  rotate_psi:                        3.332     3.332   4.5% |-|
 Density:                            0.896     0.001   0.0% |
  Atomic density matrices:           0.023     0.023   0.0% |
  Mix:                               0.627     0.627   0.8% |
  Multipole moments:                 0.006     0.006   0.0% |
  Pseudo density:                    0.239     0.239   0.3% |
   Symmetrize density:               0.001     0.001   0.0% |
 Hamiltonian:                       44.621     0.004   0.0% |
  Atomic:                            6.507     0.030   0.0% |
   XC Correction:                    6.477     6.477   8.8% |---|
  Calculate atomic Hamiltonians:     0.153     0.153   0.2% |
  Communicate:                       0.000     0.000   0.0% |
  Hartree integrate/restrict:        0.364     0.364   0.5% |
  Poisson:                          14.305    14.305  19.4% |-------|
  XC 3D grid:                       23.223    23.223  31.4% |------------|
  vbar:                              0.065     0.065   0.1% |
 Orthonormalize:                     0.066     0.000   0.0% |
  calc_s_matrix:                     0.022     0.022   0.0% |
  inverse-cholesky:                  0.000     0.000   0.0% |
  projections:                       0.015     0.015   0.0% |
  rotate_psi_s:                      0.029     0.029   0.0% |
Set symmetry:                        0.001     0.001   0.0% |
Other:                               0.926     0.926   1.3% ||
-----------------------------------------------------------
Total:                                        73.862 100.0%

Memory usage: 259.00 MiB
Date: Mon Aug 20 15:12:21 2018
