
  ___ ___ ___ _ _ _  
 |   |   |_  | | | | 
 | | | | | . | | | | 
 |__ |  _|___|_____|  1.4.0
 |___|_|             

User:   ???@3fe09ff0504a
Date:   Mon Aug 20 16:02:51 2018
Arch:   x86_64
Pid:    566
Python: 3.7.0
gpaw:   /app/gpaw/software/venv/lib/python3.7/site-packages/gpaw
_gpaw:  /app/gpaw/software/venv/lib/python3.7/site-packages/
        _gpaw.cpython-37m-x86_64-linux-gnu.so
ase:    /app/gpaw/software/venv/lib/python3.7/site-packages/ase (version 3.16.2)
numpy:  /app/gpaw/software/venv/lib/python3.7/site-packages/numpy (version 1.15.0)
scipy:  /app/gpaw/software/venv/lib/python3.7/site-packages/scipy (version 1.1.0)
units:  Angstrom and eV
cores:  1

Input parameters:
  gpts: [56 48 40]
  maxiter: 150
  mixer: {backend: pulay,
          beta: None,
          method: separate,
          nmaxold: None,
          weight: None}
  xc: PBE

System changes: positions, numbers, cell, pbc, initial_charges, initial_magmoms 

Initialize ...

Hf-setup:
  name: Hafnium
  id: d03a45b6fa1dd7f07e443d1513edf499
  Z: 72
  valence: 12
  core: 60
  charge: 0.0
  file: /app/gpaw/datasets/Hf.PBE
  cutoffs: 1.30(comp), 2.36(filt), 4.02(core), lmax=2
  valence states:
                energy  radius
    5s(2.00)   -66.831   1.397
    6s(2.00)    -5.097   1.397
    5p(6.00)   -35.599   1.307
    6p(0.00)    -1.401   1.307
    5d(2.00)    -2.699   1.334
    *d          24.513   1.334

  Using partial waves for Hf as LCAO basis

N-setup:
  name: Nitrogen
  id: 45c8c9c739e7b131496b9fd2deb94bff
  Z: 7
  valence: 5
  core: 2
  charge: 0.0
  file: /app/gpaw/datasets/N.PBE
  cutoffs: 0.58(comp), 1.11(filt), 0.96(core), lmax=2
  valence states:
                energy  radius
    2s(2.00)   -18.583   0.603
    2p(3.00)    -7.089   0.529
    *s           8.629   0.603
    *p          20.123   0.529
    *d           0.000   0.577

  Using partial waves for N as LCAO basis

C-setup:
  name: Carbon
  id: 2f012631b351e3618121587a96c50fca
  Z: 6
  valence: 4
  core: 2
  charge: 0.0
  file: /app/gpaw/datasets/C.PBE
  cutoffs: 0.64(comp), 1.14(filt), 1.14(core), lmax=2
  valence states:
                energy  radius
    2s(2.00)   -13.751   0.635
    2p(2.00)    -5.285   0.635
    *s          13.461   0.635
    *p          21.927   0.635
    *d           0.000   0.635

  Using partial waves for C as LCAO basis

Reference energy: -412395.464894

Spin-paired calculation

Occupation numbers:
  Fermi-Dirac: width=0.0000 eV

Convergence criteria:
  Maximum total energy change: 0.0005 eV / electron
  Maximum integral of absolute density change: 0.0001 electrons
  Maximum integral of absolute eigenstate change: 4e-08 eV^2
  Maximum number of iterations: 150

Symmetries present (total): 1

  ( 1  0  0)
  ( 0  1  0)
  ( 0  0  1)

1 k-point (Gamma)
1 k-point in the irreducible part of the Brillouin zone
       k-points in crystal coordinates                weights
   0:     0.00000000    0.00000000    0.00000000          1/1

Wave functions: Uniform real-space grid
  Kinetic energy operator: 6*3+1=19 point O(h^6) finite-difference Laplacian
  ScaLapack parameters: grid=1x1, blocksize=None 

Eigensolver
   Davidson(niter=1, smin=None, normalize=True) 

Densities:
  Coarse grid: 56*48*40 grid
  Fine grid: 112*96*80 grid
  Total Charge: 0.000000 

Density mixing:
  Method: separate
  Backend: pulay
  Linear mixing parameter: 0.25
  Mixing with 3 old densities
  No damping of long wave oscillations 

Hamiltonian:
  XC and Coulomb potentials evaluated on a 112*96*80 grid
  Using the PBE Exchange-Correlation functional
  Interpolation: tri-quintic (5. degree polynomial)
  Poisson solver: Jacobi solver with 5 multi-grid levels
    Coarsest grid: 7 x 6 x 5 points
    Stencil: 6*3+1=19 point O(h^6) finite-difference Laplacian
    Max iterations: 1000
    Tolerance: 2.000000e-10 

Memory estimate:
  Process memory now: 237.17 MiB
  Calculator: 111.12 MiB
    Density: 42.40 MiB
      Arrays: 20.61 MiB
      Localized functions: 17.17 MiB
      Mixer: 4.61 MiB
    Hamiltonian: 30.06 MiB
      Arrays: 13.48 MiB
      XC: 0.00 MiB
      Poisson: 15.43 MiB
      vbar: 1.15 MiB
    Wavefunctions: 38.66 MiB
      Arrays psit_nG: 16.15 MiB
      Eigensolver: 20.03 MiB
      Projections: 0.01 MiB
      Projectors: 2.47 MiB

Total number of cores used: 1

Number of atoms: 3
Number of atomic orbitals: 21
Number of bands in calculation: 21
Bands to converge: occupied states only
Number of valence electrons: 21

... initialized

Initializing position-dependent things.

Density initialized from atomic densities
Creating initial wave functions:
  21 bands from LCAO basis set

      .--------------------.  
     /|                    |  
    / |                    |  
   /  |                    |  
  /   |                    |  
 *    |                    |  
 |    |      C NHf         |  
 |    .--------------------.  
 |   /                    /   
 |  /                    /    
 | /                    /     
 |/                    /      
 *--------------------*       

Positions:
   0 Hf     5.025000    4.475000    3.000000    ( 0.0000,  0.0000,  0.0000)
   1 N      5.025000    3.025000    3.000000    ( 0.0000,  0.0000,  0.0000)
   2 C      3.475000    4.475000    3.000000    ( 0.0000,  0.0000,  0.0000)

Unit cell:
           periodic     x           y           z      points  spacing
  1. axis:    no     8.500000    0.000000    0.000000    56     0.1518
  2. axis:    no     0.000000    7.500000    0.000000    48     0.1562
  3. axis:    no     0.000000    0.000000    6.000000    40     0.1500

  Lengths:   8.500000   7.500000   6.000000
  Angles:   90.000000  90.000000  90.000000

Effective grid spacing dv^(1/3) = 0.1527

                     log10-error:    total        iterations:
           time      wfs    density  energy       fermi  poisson
iter:   1  16:02:56  +2.59   +inf   -11.408173    0      15     
iter:   2  16:02:57  +1.27   +inf   -12.426747    0             
iter:   3  16:02:58  +0.62   +inf   -12.663784    0             
iter:   4  16:03:01  +0.50  -0.70    -8.234481    0      9      
iter:   5  16:03:03  +0.46  -0.92    -7.269453    0      8      
iter:   6  16:03:06  +0.37  -1.11    -6.910076    0      8      
iter:   7  16:03:09  +0.28  -1.39    -6.949725    0      7      
iter:   8  16:03:11  +0.04  -1.60    -6.976134    0      7      
iter:   9  16:03:14  -0.39  -1.93    -6.983733    0      6      
iter:  10  16:03:16  -0.62  -2.23    -6.985684    0      5      
iter:  11  16:03:18  -1.10  -2.39    -6.986027    0      5      
iter:  12  16:03:20  -1.34  -2.58    -6.986054    0      5      
iter:  13  16:03:23  -1.81  -2.77    -6.986261    0      5      
iter:  14  16:03:25  -1.93  -2.96    -6.986393    0      4      
iter:  15  16:03:27  -2.42  -3.08    -6.986454    0      4      
iter:  16  16:03:29  -2.50  -3.43    -6.986467    0      3      
iter:  17  16:03:31  -2.97  -3.54    -6.986495    0      4      
iter:  18  16:03:33  -3.03  -4.17    -6.986582    0      2      
iter:  19  16:03:35  -3.46  -4.23    -6.986565    0      2      
iter:  20  16:03:37  -3.51  -4.21    -6.986603    0      1      
iter:  21  16:03:38  -3.93  -4.17    -6.986513    0      1      
iter:  22  16:03:40  -3.97  -4.07    -6.986578    0      2      
iter:  23  16:03:42  -4.38  -4.13    -6.986600    0      2      
iter:  24  16:03:44  -4.51  -4.24    -6.986556    0      3      
iter:  25  16:03:46  -4.81  -4.46    -6.986539    0      2      
iter:  26  16:03:48  -4.99  -4.56    -6.986578    0      2      
iter:  27  16:03:50  -5.26  -4.91    -6.986534    0      1      
iter:  28  16:03:51  -5.52  -5.08    -6.986526    0      1      
iter:  29  16:03:53  -5.79  -5.38    -6.986523    0      1      
iter:  30  16:03:55  -5.98  -5.52    -6.986532    0      1      
iter:  31  16:03:57  -6.26  -5.65    -6.986536    0      1      
iter:  32  16:03:58  -6.43  -5.73    -6.986540    0      1      
iter:  33  16:04:00  -6.69  -5.92    -6.986539    0      1      
iter:  34  16:04:02  -6.87  -6.27    -6.986537    0      1      
iter:  35  16:04:04  -7.11  -6.26    -6.986538    0      1      
iter:  36  16:04:05  -7.28  -6.41    -6.986537    0      1      
iter:  37  16:04:07  -7.50  -6.62    -6.986538    0      1      

Converged after 37 iterations.

Dipole moment: (0.732306, 0.723892, -0.000000) |e|*Ang

Energy contributions relative to reference atoms: (reference = -412395.464894)

Kinetic:       +114.152715
Potential:      -89.666398
External:        +0.000000
XC:             -32.111566
Entropy (-ST):   +0.000000
Local:           +0.638711
--------------------------
Free energy:     -6.986538
Extrapolated:    -6.986538

Fermi level: -3.82246

 Band  Eigenvalues  Occupancy
    0    -63.91343    2.00000
    1    -35.15599    2.00000
    2    -34.14228    2.00000
    3    -32.76687    2.00000
    4    -14.96732    2.00000
    5    -11.35265    2.00000
    6     -8.64616    2.00000
    7     -7.21993    2.00000
    8     -5.69759    2.00000
    9     -5.58811    2.00000
   10     -3.82246    1.00000
   11     -2.79914    0.00000
   12     -1.82456    0.00000
   13      0.31655    0.00000
   14      1.11805    0.00000
   15      2.73807    0.00000
   16      2.96277    0.00000
   17      3.10070    0.00000
   18      4.27995    0.00000
   19      4.85721    0.00000
   20      5.56816    0.00000

Writing to 3_38249_Pm_PBE_yy1_55.gpw (mode='all')

Timing:                              incl.     excl.
-----------------------------------------------------------
Hamiltonian:                         2.956     0.000   0.0% |
 Atomic:                             0.197     0.001   0.0% |
  XC Correction:                     0.196     0.196   0.3% |
 Calculate atomic Hamiltonians:      0.005     0.005   0.0% |
 Communicate:                        0.000     0.000   0.0% |
 Hartree integrate/restrict:         0.011     0.011   0.0% |
 Initialize Hamiltonian:             0.000     0.000   0.0% |
 Poisson:                            2.035     2.035   2.7% ||
 XC 3D grid:                         0.705     0.705   0.9% |
 vbar:                               0.003     0.003   0.0% |
LCAO initialization:                 0.655     0.546   0.7% |
 LCAO eigensolver:                   0.034     0.000   0.0% |
  Calculate projections:             0.000     0.000   0.0% |
  DenseAtomicCorrection:             0.000     0.000   0.0% |
  Distribute overlap matrix:         0.000     0.000   0.0% |
  Orbital Layouts:                   0.000     0.000   0.0% |
  Potential matrix:                  0.034     0.034   0.0% |
 LCAO to grid:                       0.070     0.070   0.1% |
 Set positions (LCAO WFS):           0.004     0.000   0.0% |
  Basic WFS set positions:           0.000     0.000   0.0% |
  Basis functions set positions:     0.000     0.000   0.0% |
  TCI: Calculate S, T, P:            0.003     0.003   0.0% |
SCF-cycle:                          71.383     0.015   0.0% |
 Davidson:                          24.309     4.705   6.2% |-|
  Apply hamiltonian:                 1.887     1.887   2.5% ||
  Subspace diag:                     6.799     0.004   0.0% |
   calc_h_matrix:                    3.342     1.451   1.9% ||
    Apply hamiltonian:               1.890     1.890   2.5% ||
   diagonalize:                      0.008     0.008   0.0% |
   rotate_psi:                       3.445     3.445   4.5% |-|
  calc. matrices:                    7.438     5.551   7.3% |--|
   Apply hamiltonian:                1.888     1.888   2.5% ||
  diagonalize:                       0.029     0.029   0.0% |
  rotate_psi:                        3.451     3.451   4.5% |-|
 Density:                            0.917     0.001   0.0% |
  Atomic density matrices:           0.024     0.024   0.0% |
  Mix:                               0.641     0.641   0.8% |
  Multipole moments:                 0.006     0.006   0.0% |
  Pseudo density:                    0.246     0.245   0.3% |
   Symmetrize density:               0.001     0.001   0.0% |
 Hamiltonian:                       46.077     0.004   0.0% |
  Atomic:                            6.704     0.030   0.0% |
   XC Correction:                    6.675     6.675   8.8% |---|
  Calculate atomic Hamiltonians:     0.158     0.158   0.2% |
  Communicate:                       0.000     0.000   0.0% |
  Hartree integrate/restrict:        0.374     0.374   0.5% |
  Poisson:                          14.823    14.823  19.5% |-------|
  XC 3D grid:                       23.946    23.946  31.5% |------------|
  vbar:                              0.068     0.068   0.1% |
 Orthonormalize:                     0.065     0.000   0.0% |
  calc_s_matrix:                     0.022     0.022   0.0% |
  inverse-cholesky:                  0.000     0.000   0.0% |
  projections:                       0.015     0.015   0.0% |
  rotate_psi_s:                      0.028     0.028   0.0% |
Set symmetry:                        0.001     0.001   0.0% |
Other:                               0.929     0.929   1.2% |
-----------------------------------------------------------
Total:                                        75.923 100.0%

Memory usage: 237.17 MiB
Date: Mon Aug 20 16:04:07 2018
