
  ___ ___ ___ _ _ _  
 |   |   |_  | | | | 
 | | | | | . | | | | 
 |__ |  _|___|_____|  1.4.0
 |___|_|             

User:   ???@3fe09ff0504a
Date:   Mon Aug 20 16:25:43 2018
Arch:   x86_64
Pid:    1230
Python: 3.7.0
gpaw:   /app/gpaw/software/venv/lib/python3.7/site-packages/gpaw
_gpaw:  /app/gpaw/software/venv/lib/python3.7/site-packages/
        _gpaw.cpython-37m-x86_64-linux-gnu.so
ase:    /app/gpaw/software/venv/lib/python3.7/site-packages/ase (version 3.16.2)
numpy:  /app/gpaw/software/venv/lib/python3.7/site-packages/numpy (version 1.15.0)
scipy:  /app/gpaw/software/venv/lib/python3.7/site-packages/scipy (version 1.1.0)
units:  Angstrom and eV
cores:  1

Input parameters:
  gpts: [56 48 40]
  maxiter: 150
  mixer: {backend: pulay,
          beta: None,
          method: separate,
          nmaxold: None,
          weight: None}
  xc: PBE

System changes: positions, numbers, cell, pbc, initial_charges, initial_magmoms 

Initialize ...

Hf-setup:
  name: Hafnium
  id: d03a45b6fa1dd7f07e443d1513edf499
  Z: 72
  valence: 12
  core: 60
  charge: 0.0
  file: /app/gpaw/datasets/Hf.PBE
  cutoffs: 1.30(comp), 2.36(filt), 4.02(core), lmax=2
  valence states:
                energy  radius
    5s(2.00)   -66.831   1.397
    6s(2.00)    -5.097   1.397
    5p(6.00)   -35.599   1.307
    6p(0.00)    -1.401   1.307
    5d(2.00)    -2.699   1.334
    *d          24.513   1.334

  Using partial waves for Hf as LCAO basis

N-setup:
  name: Nitrogen
  id: 45c8c9c739e7b131496b9fd2deb94bff
  Z: 7
  valence: 5
  core: 2
  charge: 0.0
  file: /app/gpaw/datasets/N.PBE
  cutoffs: 0.58(comp), 1.11(filt), 0.96(core), lmax=2
  valence states:
                energy  radius
    2s(2.00)   -18.583   0.603
    2p(3.00)    -7.089   0.529
    *s           8.629   0.603
    *p          20.123   0.529
    *d           0.000   0.577

  Using partial waves for N as LCAO basis

C-setup:
  name: Carbon
  id: 2f012631b351e3618121587a96c50fca
  Z: 6
  valence: 4
  core: 2
  charge: 0.0
  file: /app/gpaw/datasets/C.PBE
  cutoffs: 0.64(comp), 1.14(filt), 1.14(core), lmax=2
  valence states:
                energy  radius
    2s(2.00)   -13.751   0.635
    2p(2.00)    -5.285   0.635
    *s          13.461   0.635
    *p          21.927   0.635
    *d           0.000   0.635

  Using partial waves for C as LCAO basis

Reference energy: -412395.464894

Spin-paired calculation

Occupation numbers:
  Fermi-Dirac: width=0.0000 eV

Convergence criteria:
  Maximum total energy change: 0.0005 eV / electron
  Maximum integral of absolute density change: 0.0001 electrons
  Maximum integral of absolute eigenstate change: 4e-08 eV^2
  Maximum number of iterations: 150

Symmetries present (total): 1

  ( 1  0  0)
  ( 0  1  0)
  ( 0  0  1)

1 k-point (Gamma)
1 k-point in the irreducible part of the Brillouin zone
       k-points in crystal coordinates                weights
   0:     0.00000000    0.00000000    0.00000000          1/1

Wave functions: Uniform real-space grid
  Kinetic energy operator: 6*3+1=19 point O(h^6) finite-difference Laplacian
  ScaLapack parameters: grid=1x1, blocksize=None 

Eigensolver
   Davidson(niter=1, smin=None, normalize=True) 

Densities:
  Coarse grid: 56*48*40 grid
  Fine grid: 112*96*80 grid
  Total Charge: 0.000000 

Density mixing:
  Method: separate
  Backend: pulay
  Linear mixing parameter: 0.25
  Mixing with 3 old densities
  No damping of long wave oscillations 

Hamiltonian:
  XC and Coulomb potentials evaluated on a 112*96*80 grid
  Using the PBE Exchange-Correlation functional
  Interpolation: tri-quintic (5. degree polynomial)
  Poisson solver: Jacobi solver with 5 multi-grid levels
    Coarsest grid: 7 x 6 x 5 points
    Stencil: 6*3+1=19 point O(h^6) finite-difference Laplacian
    Max iterations: 1000
    Tolerance: 2.000000e-10 

Memory estimate:
  Process memory now: 41.55 MiB
  Calculator: 111.12 MiB
    Density: 42.40 MiB
      Arrays: 20.61 MiB
      Localized functions: 17.17 MiB
      Mixer: 4.61 MiB
    Hamiltonian: 30.06 MiB
      Arrays: 13.48 MiB
      XC: 0.00 MiB
      Poisson: 15.43 MiB
      vbar: 1.15 MiB
    Wavefunctions: 38.66 MiB
      Arrays psit_nG: 16.15 MiB
      Eigensolver: 20.03 MiB
      Projections: 0.01 MiB
      Projectors: 2.47 MiB

Total number of cores used: 1

Number of atoms: 3
Number of atomic orbitals: 21
Number of bands in calculation: 21
Bands to converge: occupied states only
Number of valence electrons: 21

... initialized

Initializing position-dependent things.

Density initialized from atomic densities
Creating initial wave functions:
  21 bands from LCAO basis set

      .--------------------.  
     /|                    |  
    / |                    |  
   /  |                    |  
  /   |                    |  
 *    |     C    Hf        |  
 |    |                    |  
 |    .---------N----------.  
 |   /                    /   
 |  /                    /    
 | /                    /     
 |/                    /      
 *--------------------*       

Positions:
   0 Hf     5.152500    4.656250    3.000000    ( 0.0000,  0.0000,  0.0000)
   1 N      5.152500    2.843750    3.000000    ( 0.0000,  0.0000,  0.0000)
   2 C      3.347500    4.656250    3.000000    ( 0.0000,  0.0000,  0.0000)

Unit cell:
           periodic     x           y           z      points  spacing
  1. axis:    no     8.500000    0.000000    0.000000    56     0.1518
  2. axis:    no     0.000000    7.500000    0.000000    48     0.1562
  3. axis:    no     0.000000    0.000000    6.000000    40     0.1500

  Lengths:   8.500000   7.500000   6.000000
  Angles:   90.000000  90.000000  90.000000

Effective grid spacing dv^(1/3) = 0.1527

                     log10-error:    total        iterations:
           time      wfs    density  energy       fermi  poisson
iter:   1  16:25:49  +2.60   +inf   -18.657575    0      15     
iter:   2  16:25:49  +0.94   +inf   -19.137144    0             
iter:   3  16:25:50  +0.37   +inf   -19.265191    0             
iter:   4  16:25:53  +0.32  -0.70   -16.233703    0      9      
iter:   5  16:25:56  +0.49  -0.77   -15.148868    0      8      
iter:   6  16:25:58  +0.32  -0.96   -14.387079    0      8      
iter:   7  16:26:01  +0.05  -1.19   -14.261226    0      8      
iter:   8  16:26:04  +0.17  -1.46   -14.283036    0      7      
iter:   9  16:26:06  -0.43  -1.64   -14.280897    0      7      
iter:  10  16:26:08  -0.27  -1.97   -14.281692    0      5      
iter:  11  16:26:11  -1.09  -2.25   -14.282624    0      5      
iter:  12  16:26:13  -1.24  -2.44   -14.282901    0      4      
iter:  13  16:26:15  -1.72  -2.70   -14.283147    0      4      
iter:  14  16:26:17  -1.90  -2.78   -14.283283    0      5      
iter:  15  16:26:19  -2.29  -3.24   -14.283248    0      3      
iter:  16  16:26:21  -2.51  -3.42   -14.283288    0      3      
iter:  17  16:26:23  -2.89  -3.59   -14.283344    0      3      
iter:  18  16:26:25  -2.99  -3.78   -14.283595    0      2      
iter:  19  16:26:27  -3.40  -3.82   -14.283429    0      2      
iter:  20  16:26:29  -3.53  -3.86   -14.283514    0      2      
iter:  21  16:26:31  -3.94  -3.99   -14.283483    0      3      
iter:  22  16:26:33  -4.16  -4.49   -14.283467    0      2      
iter:  23  16:26:35  -4.44  -4.59   -14.283435    0      1      
iter:  24  16:26:36  -4.63  -4.66   -14.283442    0      1      
iter:  25  16:26:38  -4.89  -4.87   -14.283456    0      1      
iter:  26  16:26:40  -5.11  -5.20   -14.283480    0      1      
iter:  27  16:26:42  -5.35  -5.25   -14.283490    0      1      
iter:  28  16:26:43  -5.58  -5.32   -14.283503    0      1      
iter:  29  16:26:45  -5.81  -5.37   -14.283529    0      1      
iter:  30  16:26:47  -6.05  -5.49   -14.283440    0      1      
iter:  31  16:26:49  -6.21  -5.53   -14.283479    0      1      
iter:  32  16:26:50  -6.53  -5.75   -14.283479    0      1      
iter:  33  16:26:52  -6.70  -6.00   -14.283473    0      1      
iter:  34  16:26:54  -6.98  -6.18   -14.283468    0      1      
iter:  35  16:26:56  -7.14  -6.37   -14.283469    0      1      
iter:  36  16:26:57  -7.42  -6.52   -14.283469    0      1      

Converged after 36 iterations.

Dipole moment: (0.959399, 1.302757, 0.000000) |e|*Ang

Energy contributions relative to reference atoms: (reference = -412395.464894)

Kinetic:        +24.062407
Potential:      -19.325406
External:        +0.000000
XC:             -18.969242
Entropy (-ST):   +0.000000
Local:           -0.051228
--------------------------
Free energy:    -14.283469
Extrapolated:   -14.283469

Fermi level: -4.72059

 Band  Eigenvalues  Occupancy
    0    -64.79470    2.00000
    1    -34.16456    2.00000
    2    -34.04407    2.00000
    3    -33.94181    2.00000
    4    -15.57439    2.00000
    5    -12.11621    2.00000
    6     -6.35490    2.00000
    7     -5.32285    2.00000
    8     -5.19120    2.00000
    9     -4.84613    2.00000
   10     -4.72059    1.00000
   11     -3.29569    0.00000
   12     -2.48147    0.00000
   13     -0.66585    0.00000
   14     -0.22220    0.00000
   15      0.86869    0.00000
   16      1.33991    0.00000
   17      2.06711    0.00000
   18      3.72645    0.00000
   19      3.75506    0.00000
   20      4.47067    0.00000

Writing to 3_38249_Pm_PBE_zz1_805.gpw (mode='all')

Timing:                              incl.     excl.
-----------------------------------------------------------
Hamiltonian:                         2.955     0.000   0.0% |
 Atomic:                             0.196     0.001   0.0% |
  XC Correction:                     0.195     0.195   0.3% |
 Calculate atomic Hamiltonians:      0.005     0.005   0.0% |
 Communicate:                        0.000     0.000   0.0% |
 Hartree integrate/restrict:         0.011     0.011   0.0% |
 Initialize Hamiltonian:             0.000     0.000   0.0% |
 Poisson:                            2.035     2.035   2.8% ||
 XC 3D grid:                         0.704     0.704   1.0% |
 vbar:                               0.004     0.004   0.0% |
LCAO initialization:                 0.685     0.580   0.8% |
 LCAO eigensolver:                   0.033     0.000   0.0% |
  Calculate projections:             0.000     0.000   0.0% |
  DenseAtomicCorrection:             0.000     0.000   0.0% |
  Distribute overlap matrix:         0.000     0.000   0.0% |
  Orbital Layouts:                   0.000     0.000   0.0% |
  Potential matrix:                  0.032     0.032   0.0% |
 LCAO to grid:                       0.067     0.067   0.1% |
 Set positions (LCAO WFS):           0.005     0.000   0.0% |
  Basic WFS set positions:           0.000     0.000   0.0% |
  Basis functions set positions:     0.000     0.000   0.0% |
  TCI: Calculate S, T, P:            0.004     0.004   0.0% |
SCF-cycle:                          69.263     0.015   0.0% |
 Davidson:                          23.745     4.686   6.3% |--|
  Apply hamiltonian:                 1.841     1.841   2.5% ||
  Subspace diag:                     6.636     0.004   0.0% |
   calc_h_matrix:                    3.261     1.420   1.9% ||
    Apply hamiltonian:               1.841     1.841   2.5% ||
   diagonalize:                      0.008     0.008   0.0% |
   rotate_psi:                       3.363     3.363   4.5% |-|
  calc. matrices:                    7.223     5.384   7.3% |--|
   Apply hamiltonian:                1.839     1.839   2.5% ||
  diagonalize:                       0.028     0.028   0.0% |
  rotate_psi:                        3.331     3.331   4.5% |-|
 Density:                            0.889     0.001   0.0% |
  Atomic density matrices:           0.023     0.023   0.0% |
  Mix:                               0.622     0.622   0.8% |
  Multipole moments:                 0.006     0.006   0.0% |
  Pseudo density:                    0.238     0.237   0.3% |
   Symmetrize density:               0.001     0.001   0.0% |
 Hamiltonian:                       44.549     0.004   0.0% |
  Atomic:                            6.500     0.029   0.0% |
   XC Correction:                    6.471     6.471   8.8% |---|
  Calculate atomic Hamiltonians:     0.153     0.153   0.2% |
  Communicate:                       0.000     0.000   0.0% |
  Hartree integrate/restrict:        0.362     0.362   0.5% |
  Poisson:                          14.249    14.249  19.3% |-------|
  XC 3D grid:                       23.217    23.217  31.4% |------------|
  vbar:                              0.065     0.065   0.1% |
 Orthonormalize:                     0.065     0.000   0.0% |
  calc_s_matrix:                     0.022     0.022   0.0% |
  inverse-cholesky:                  0.000     0.000   0.0% |
  projections:                       0.015     0.015   0.0% |
  rotate_psi_s:                      0.028     0.028   0.0% |
Set symmetry:                        0.001     0.001   0.0% |
Other:                               1.052     1.052   1.4% ||
-----------------------------------------------------------
Total:                                        73.957 100.0%

Memory usage: 230.09 MiB
Date: Mon Aug 20 16:26:57 2018
