
  ___ ___ ___ _ _ _  
 |   |   |_  | | | | 
 | | | | | . | | | | 
 |__ |  _|___|_____|  1.4.0
 |___|_|             

User:   ???@3fe09ff0504a
Date:   Mon Aug 20 15:42:30 2018
Arch:   x86_64
Pid:    452
Python: 3.7.0
gpaw:   /app/gpaw/software/venv/lib/python3.7/site-packages/gpaw
_gpaw:  /app/gpaw/software/venv/lib/python3.7/site-packages/
        _gpaw.cpython-37m-x86_64-linux-gnu.so
ase:    /app/gpaw/software/venv/lib/python3.7/site-packages/ase (version 3.16.2)
numpy:  /app/gpaw/software/venv/lib/python3.7/site-packages/numpy (version 1.15.0)
scipy:  /app/gpaw/software/venv/lib/python3.7/site-packages/scipy (version 1.1.0)
units:  Angstrom and eV
cores:  1

Input parameters:
  gpts: [56 48 40]
  maxiter: 150
  mixer: {backend: pulay,
          beta: None,
          method: separate,
          nmaxold: None,
          weight: None}
  xc: PBE

System changes: positions, numbers, cell, pbc, initial_charges, initial_magmoms 

Initialize ...

Hf-setup:
  name: Hafnium
  id: d03a45b6fa1dd7f07e443d1513edf499
  Z: 72
  valence: 12
  core: 60
  charge: 0.0
  file: /app/gpaw/datasets/Hf.PBE
  cutoffs: 1.30(comp), 2.36(filt), 4.02(core), lmax=2
  valence states:
                energy  radius
    5s(2.00)   -66.831   1.397
    6s(2.00)    -5.097   1.397
    5p(6.00)   -35.599   1.307
    6p(0.00)    -1.401   1.307
    5d(2.00)    -2.699   1.334
    *d          24.513   1.334

  Using partial waves for Hf as LCAO basis

N-setup:
  name: Nitrogen
  id: 45c8c9c739e7b131496b9fd2deb94bff
  Z: 7
  valence: 5
  core: 2
  charge: 0.0
  file: /app/gpaw/datasets/N.PBE
  cutoffs: 0.58(comp), 1.11(filt), 0.96(core), lmax=2
  valence states:
                energy  radius
    2s(2.00)   -18.583   0.603
    2p(3.00)    -7.089   0.529
    *s           8.629   0.603
    *p          20.123   0.529
    *d           0.000   0.577

  Using partial waves for N as LCAO basis

C-setup:
  name: Carbon
  id: 2f012631b351e3618121587a96c50fca
  Z: 6
  valence: 4
  core: 2
  charge: 0.0
  file: /app/gpaw/datasets/C.PBE
  cutoffs: 0.64(comp), 1.14(filt), 1.14(core), lmax=2
  valence states:
                energy  radius
    2s(2.00)   -13.751   0.635
    2p(2.00)    -5.285   0.635
    *s          13.461   0.635
    *p          21.927   0.635
    *d           0.000   0.635

  Using partial waves for C as LCAO basis

Reference energy: -412395.464894

Spin-paired calculation

Occupation numbers:
  Fermi-Dirac: width=0.0000 eV

Convergence criteria:
  Maximum total energy change: 0.0005 eV / electron
  Maximum integral of absolute density change: 0.0001 electrons
  Maximum integral of absolute eigenstate change: 4e-08 eV^2
  Maximum number of iterations: 150

Symmetries present (total): 1

  ( 1  0  0)
  ( 0  1  0)
  ( 0  0  1)

1 k-point (Gamma)
1 k-point in the irreducible part of the Brillouin zone
       k-points in crystal coordinates                weights
   0:     0.00000000    0.00000000    0.00000000          1/1

Wave functions: Uniform real-space grid
  Kinetic energy operator: 6*3+1=19 point O(h^6) finite-difference Laplacian
  ScaLapack parameters: grid=1x1, blocksize=None 

Eigensolver
   Davidson(niter=1, smin=None, normalize=True) 

Densities:
  Coarse grid: 56*48*40 grid
  Fine grid: 112*96*80 grid
  Total Charge: 0.000000 

Density mixing:
  Method: separate
  Backend: pulay
  Linear mixing parameter: 0.25
  Mixing with 3 old densities
  No damping of long wave oscillations 

Hamiltonian:
  XC and Coulomb potentials evaluated on a 112*96*80 grid
  Using the PBE Exchange-Correlation functional
  Interpolation: tri-quintic (5. degree polynomial)
  Poisson solver: Jacobi solver with 5 multi-grid levels
    Coarsest grid: 7 x 6 x 5 points
    Stencil: 6*3+1=19 point O(h^6) finite-difference Laplacian
    Max iterations: 1000
    Tolerance: 2.000000e-10 

Memory estimate:
  Process memory now: 230.02 MiB
  Calculator: 111.12 MiB
    Density: 42.40 MiB
      Arrays: 20.61 MiB
      Localized functions: 17.17 MiB
      Mixer: 4.61 MiB
    Hamiltonian: 30.06 MiB
      Arrays: 13.48 MiB
      XC: 0.00 MiB
      Poisson: 15.43 MiB
      vbar: 1.15 MiB
    Wavefunctions: 38.66 MiB
      Arrays psit_nG: 16.15 MiB
      Eigensolver: 20.03 MiB
      Projections: 0.01 MiB
      Projectors: 2.47 MiB

Total number of cores used: 1

Number of atoms: 3
Number of atomic orbitals: 21
Number of bands in calculation: 21
Bands to converge: occupied states only
Number of valence electrons: 21

... initialized

Initializing position-dependent things.

Density initialized from atomic densities
Creating initial wave functions:
  21 bands from LCAO basis set

      .--------------------.  
     /|                    |  
    / |                    |  
   /  |                    |  
  /   |                    |  
 *    |      Hf  C         |  
 |    |                    |  
 |    .----N---------------.  
 |   /                    /   
 |  /                    /    
 | /                    /     
 |/                    /      
 *--------------------*       

Positions:
   0 Hf     3.400000    4.687500    3.000000    ( 0.0000,  0.0000,  0.0000)
   1 N      3.400000    2.812500    3.000000    ( 0.0000,  0.0000,  0.0000)
   2 C      5.100000    4.687500    3.000000    ( 0.0000,  0.0000,  0.0000)

Unit cell:
           periodic     x           y           z      points  spacing
  1. axis:    no     8.500000    0.000000    0.000000    56     0.1518
  2. axis:    no     0.000000    7.500000    0.000000    48     0.1562
  3. axis:    no     0.000000    0.000000    6.000000    40     0.1500

  Lengths:   8.500000   7.500000   6.000000
  Angles:   90.000000  90.000000  90.000000

Effective grid spacing dv^(1/3) = 0.1527

                     log10-error:    total        iterations:
           time      wfs    density  energy       fermi  poisson
iter:   1  15:42:36  +2.61   +inf   -17.749807    0      15     
iter:   2  15:42:36  +0.97   +inf   -18.278155    0             
iter:   3  15:42:37  +0.39   +inf   -18.417172    0             
iter:   4  15:42:40  +0.35  -0.72   -14.869942    0      9      
iter:   5  15:42:42  +0.39  -0.86   -14.483549    0      8      
iter:   6  15:42:45  +0.34  -0.96   -13.658361    0      8      
iter:   7  15:42:48  +0.11  -1.24   -13.602235    0      8      
iter:   8  15:42:50  +0.13  -1.45   -13.607636    0      7      
iter:   9  15:42:53  -0.41  -1.71   -13.615504    0      7      
iter:  10  15:42:55  -0.36  -2.04   -13.617986    0      5      
iter:  11  15:42:57  -1.06  -2.29   -13.619206    0      5      
iter:  12  15:43:00  -1.20  -2.48   -13.619717    0      5      
iter:  13  15:43:02  -1.72  -2.76   -13.620103    0      4      
iter:  14  15:43:04  -1.82  -2.81   -13.620292    0      5      
iter:  15  15:43:06  -2.32  -3.17   -13.620322    0      4      
iter:  16  15:43:08  -2.47  -3.45   -13.620273    0      3      
iter:  17  15:43:10  -2.96  -3.64   -13.620355    0      3      
iter:  18  15:43:12  -2.98  -3.71   -13.620460    0      3      
iter:  19  15:43:14  -3.47  -3.79   -13.620436    0      3      
iter:  20  15:43:16  -3.63  -4.15   -13.620498    0      2      
iter:  21  15:43:18  -3.97  -4.40   -13.620442    0      2      
iter:  22  15:43:20  -4.17  -4.60   -13.620462    0      2      
iter:  23  15:43:21  -4.45  -4.74   -13.620547    0      1      
iter:  24  15:43:23  -4.69  -4.94   -13.620471    0      2      
iter:  25  15:43:25  -4.92  -5.12   -13.620435    0      1      
iter:  26  15:43:27  -5.18  -5.15   -13.620459    0      1      
iter:  27  15:43:28  -5.39  -5.11   -13.620460    0      1      
iter:  28  15:43:30  -5.67  -5.21   -13.620497    0      1      
iter:  29  15:43:32  -5.87  -5.69   -13.620455    0      1      
iter:  30  15:43:34  -6.16  -5.74   -13.620449    0      1      
iter:  31  15:43:35  -6.32  -5.74   -13.620443    0      1      
iter:  32  15:43:37  -6.60  -5.62   -13.620441    0      1      
iter:  33  15:43:39  -6.74  -5.53   -13.620446    0      1      
iter:  34  15:43:40  -7.04  -5.52   -13.620462    0      1      
iter:  35  15:43:42  -7.21  -5.68   -13.620469    0      1      
iter:  36  15:43:44  -7.58  -5.88   -13.620434    0      1      

Converged after 36 iterations.

Dipole moment: (-0.904807, 1.315171, -0.000000) |e|*Ang

Energy contributions relative to reference atoms: (reference = -412395.464894)

Kinetic:        +29.988459
Potential:      -23.736162
External:        +0.000000
XC:             -19.837644
Entropy (-ST):   +0.000000
Local:           -0.035087
--------------------------
Free energy:    -13.620434
Extrapolated:   -13.620434

Fermi level: -4.63321

 Band  Eigenvalues  Occupancy
    0    -64.75356    2.00000
    1    -34.36372    2.00000
    2    -33.97827    2.00000
    3    -33.81482    2.00000
    4    -15.65796    2.00000
    5    -11.91021    2.00000
    6     -6.44371    2.00000
    7     -5.32628    2.00000
    8     -5.22049    2.00000
    9     -4.99592    2.00000
   10     -4.63321    1.00000
   11     -3.36868    0.00000
   12     -2.43932    0.00000
   13     -0.61540    0.00000
   14     -0.08801    0.00000
   15      0.95109    0.00000
   16      1.37301    0.00000
   17      2.22818    0.00000
   18      3.80689    0.00000
   19      3.98430    0.00000
   20      4.45066    0.00000

Writing to 3_38249_Pm_PBE_xx1_875.gpw (mode='all')

Timing:                              incl.     excl.
-----------------------------------------------------------
Hamiltonian:                         2.957     0.000   0.0% |
 Atomic:                             0.195     0.001   0.0% |
  XC Correction:                     0.194     0.194   0.3% |
 Calculate atomic Hamiltonians:      0.005     0.005   0.0% |
 Communicate:                        0.000     0.000   0.0% |
 Hartree integrate/restrict:         0.011     0.011   0.0% |
 Initialize Hamiltonian:             0.000     0.000   0.0% |
 Poisson:                            2.027     2.027   2.8% ||
 XC 3D grid:                         0.716     0.716   1.0% |
 vbar:                               0.003     0.003   0.0% |
LCAO initialization:                 0.677     0.574   0.8% |
 LCAO eigensolver:                   0.032     0.000   0.0% |
  Calculate projections:             0.000     0.000   0.0% |
  DenseAtomicCorrection:             0.000     0.000   0.0% |
  Distribute overlap matrix:         0.000     0.000   0.0% |
  Orbital Layouts:                   0.000     0.000   0.0% |
  Potential matrix:                  0.032     0.032   0.0% |
 LCAO to grid:                       0.068     0.068   0.1% |
 Set positions (LCAO WFS):           0.004     0.000   0.0% |
  Basic WFS set positions:           0.000     0.000   0.0% |
  Basis functions set positions:     0.000     0.000   0.0% |
  TCI: Calculate S, T, P:            0.003     0.003   0.0% |
SCF-cycle:                          69.032     0.015   0.0% |
 Davidson:                          23.247     4.492   6.1% |-|
  Apply hamiltonian:                 1.823     1.823   2.5% ||
  Subspace diag:                     6.504     0.004   0.0% |
   calc_h_matrix:                    3.223     1.398   1.9% ||
    Apply hamiltonian:               1.824     1.824   2.5% ||
   diagonalize:                      0.008     0.008   0.0% |
   rotate_psi:                       3.269     3.269   4.4% |-|
  calc. matrices:                    7.148     5.321   7.2% |--|
   Apply hamiltonian:                1.827     1.827   2.5% ||
  diagonalize:                       0.028     0.028   0.0% |
  rotate_psi:                        3.253     3.253   4.4% |-|
 Density:                            0.878     0.001   0.0% |
  Atomic density matrices:           0.022     0.022   0.0% |
  Mix:                               0.616     0.616   0.8% |
  Multipole moments:                 0.006     0.006   0.0% |
  Pseudo density:                    0.234     0.234   0.3% |
   Symmetrize density:               0.001     0.001   0.0% |
 Hamiltonian:                       44.828     0.004   0.0% |
  Atomic:                            6.420     0.028   0.0% |
   XC Correction:                    6.392     6.392   8.7% |--|
  Calculate atomic Hamiltonians:     0.152     0.152   0.2% |
  Communicate:                       0.000     0.000   0.0% |
  Hartree integrate/restrict:        0.357     0.357   0.5% |
  Poisson:                          14.633    14.633  19.9% |-------|
  XC 3D grid:                       23.197    23.197  31.5% |------------|
  vbar:                              0.064     0.064   0.1% |
 Orthonormalize:                     0.064     0.000   0.0% |
  calc_s_matrix:                     0.021     0.021   0.0% |
  inverse-cholesky:                  0.000     0.000   0.0% |
  projections:                       0.015     0.015   0.0% |
  rotate_psi_s:                      0.028     0.028   0.0% |
Set symmetry:                        0.001     0.001   0.0% |
Other:                               0.919     0.919   1.2% |
-----------------------------------------------------------
Total:                                        73.587 100.0%

Memory usage: 237.02 MiB
Date: Mon Aug 20 15:43:44 2018
