
  ___ ___ ___ _ _ _  
 |   |   |_  | | | | 
 | | | | | . | | | | 
 |__ |  _|___|_____|  1.4.0
 |___|_|             

User:   ???@3fe09ff0504a
Date:   Mon Aug 20 20:59:44 2018
Arch:   x86_64
Pid:    1882
Python: 3.7.0
gpaw:   /app/gpaw/software/venv/lib/python3.7/site-packages/gpaw
_gpaw:  /app/gpaw/software/venv/lib/python3.7/site-packages/
        _gpaw.cpython-37m-x86_64-linux-gnu.so
ase:    /app/gpaw/software/venv/lib/python3.7/site-packages/ase (version 3.16.2)
numpy:  /app/gpaw/software/venv/lib/python3.7/site-packages/numpy (version 1.15.0)
scipy:  /app/gpaw/software/venv/lib/python3.7/site-packages/scipy (version 1.1.0)
units:  Angstrom and eV
cores:  1

Input parameters:
  gpts: [72 64 72]
  maxiter: 150
  mixer: {backend: pulay,
          beta: None,
          method: separate,
          nmaxold: None,
          weight: None}
  xc: PBE

System changes: positions, numbers, cell, pbc, initial_charges, initial_magmoms 

Initialize ...

Hf-setup:
  name: Hafnium
  id: d03a45b6fa1dd7f07e443d1513edf499
  Z: 72
  valence: 12
  core: 60
  charge: 0.0
  file: /app/gpaw/datasets/Hf.PBE
  cutoffs: 1.30(comp), 2.36(filt), 4.02(core), lmax=2
  valence states:
                energy  radius
    5s(2.00)   -66.831   1.397
    6s(2.00)    -5.097   1.397
    5p(6.00)   -35.599   1.307
    6p(0.00)    -1.401   1.307
    5d(2.00)    -2.699   1.334
    *d          24.513   1.334

  Using partial waves for Hf as LCAO basis

N-setup:
  name: Nitrogen
  id: 45c8c9c739e7b131496b9fd2deb94bff
  Z: 7
  valence: 5
  core: 2
  charge: 0.0
  file: /app/gpaw/datasets/N.PBE
  cutoffs: 0.58(comp), 1.11(filt), 0.96(core), lmax=2
  valence states:
                energy  radius
    2s(2.00)   -18.583   0.603
    2p(3.00)    -7.089   0.529
    *s           8.629   0.603
    *p          20.123   0.529
    *d           0.000   0.577

  Using partial waves for N as LCAO basis

C-setup:
  name: Carbon
  id: 2f012631b351e3618121587a96c50fca
  Z: 6
  valence: 4
  core: 2
  charge: 0.0
  file: /app/gpaw/datasets/C.PBE
  cutoffs: 0.64(comp), 1.14(filt), 1.14(core), lmax=2
  valence states:
                energy  radius
    2s(2.00)   -13.751   0.635
    2p(2.00)    -5.285   0.635
    *s          13.461   0.635
    *p          21.927   0.635
    *d           0.000   0.635

  Using partial waves for C as LCAO basis

Reference energy: -412395.464894

Spin-paired calculation

Occupation numbers:
  Fermi-Dirac: width=0.0000 eV

Convergence criteria:
  Maximum total energy change: 0.0005 eV / electron
  Maximum integral of absolute density change: 0.0001 electrons
  Maximum integral of absolute eigenstate change: 4e-08 eV^2
  Maximum number of iterations: 150

Symmetries present (total): 1

  ( 1  0  0)
  ( 0  1  0)
  ( 0  0  1)

1 k-point (Gamma)
1 k-point in the irreducible part of the Brillouin zone
       k-points in crystal coordinates                weights
   0:     0.00000000    0.00000000    0.00000000          1/1

Wave functions: Uniform real-space grid
  Kinetic energy operator: 6*3+1=19 point O(h^6) finite-difference Laplacian
  ScaLapack parameters: grid=1x1, blocksize=None 

Eigensolver
   Davidson(niter=1, smin=None, normalize=True) 

Densities:
  Coarse grid: 72*64*72 grid
  Fine grid: 144*128*144 grid
  Total Charge: 0.000000 

Density mixing:
  Method: separate
  Backend: pulay
  Linear mixing parameter: 0.25
  Mixing with 3 old densities
  No damping of long wave oscillations 

Hamiltonian:
  XC and Coulomb potentials evaluated on a 144*128*144 grid
  Using the PBE Exchange-Correlation functional
  Interpolation: tri-quintic (5. degree polynomial)
  Poisson solver: Jacobi solver with 5 multi-grid levels
    Coarsest grid: 9 x 8 x 9 points
    Stencil: 6*3+1=19 point O(h^6) finite-difference Laplacian
    Max iterations: 1000
    Tolerance: 2.000000e-10 

Memory estimate:
  Process memory now: 632.05 MiB
  Calculator: 325.36 MiB
    Density: 113.90 MiB
      Arrays: 64.29 MiB
      Localized functions: 35.07 MiB
      Mixer: 14.54 MiB
    Hamiltonian: 92.51 MiB
      Arrays: 42.05 MiB
      XC: 0.00 MiB
      Poisson: 48.10 MiB
      vbar: 2.35 MiB
    Wavefunctions: 118.96 MiB
      Arrays psit_nG: 50.88 MiB
      Eigensolver: 63.03 MiB
      Projections: 0.01 MiB
      Projectors: 5.04 MiB

Total number of cores used: 1

Number of atoms: 3
Number of atomic orbitals: 21
Number of bands in calculation: 21
Bands to converge: occupied states only
Number of valence electrons: 21

... initialized

Initializing position-dependent things.

Density initialized from atomic densities
Creating initial wave functions:
  21 bands from LCAO basis set

      .--------------------.  
     /|                    |  
    / |                    |  
   /  |                    |  
  /   |                    |  
 *    |                    |  
 |    |                    |  
 |    |     Hf   C         |  
 |    |    N               |  
 |    |                    |  
 |    .--------------------.  
 |   /                    /   
 |  /                    /    
 | /                    /     
 |/                    /      
 *--------------------*       

Positions:
   0 Hf     3.350050    4.891250    4.365000    ( 0.0000,  0.0000,  0.0000)
   1 N      3.350050    3.108750    4.135000    ( 0.0000,  0.0000,  0.0000)
   2 C      5.149950    4.891250    4.135000    ( 0.0000,  0.0000,  0.0000)

Unit cell:
           periodic     x           y           z      points  spacing
  1. axis:    no     8.500000    0.000000    0.000000    72     0.1181
  2. axis:    no     0.000000    8.000000    0.000000    64     0.1250
  3. axis:    no     0.000000    0.000000    8.500000    72     0.1181

  Lengths:   8.500000   8.000000   8.500000
  Angles:   90.000000  90.000000  90.000000

Effective grid spacing dv^(1/3) = 0.1203

                     log10-error:    total        iterations:
           time      wfs    density  energy       fermi  poisson
iter:   1  20:59:57  +2.41   +inf   -18.691054    0      15     
iter:   2  20:59:59  +1.15   +inf   -19.261858    0             
iter:   3  21:00:01  +0.59   +inf   -19.445255    0             
iter:   4  21:00:11  +0.61  -0.70   -16.488736    0      11     
iter:   5  21:00:19  +0.84  -0.77   -15.327213    0      9      
iter:   6  21:00:28  +0.52  -0.97   -14.558456    0      9      
iter:   7  21:00:36  +0.19  -1.19   -14.413395    0      9      
iter:   8  21:00:45  +0.49  -1.49   -14.433785    0      8      
iter:   9  21:00:52  -0.23  -1.68   -14.439131    0      7      
iter:  10  21:00:59  +0.10  -1.97   -14.443049    0      5      
iter:  11  21:01:06  -0.78  -2.22   -14.445124    0      5      
iter:  12  21:01:12  -0.63  -2.41   -14.446650    0      4      
iter:  13  21:01:18  -1.23  -2.61   -14.447611    0      4      
iter:  14  21:01:25  -1.11  -2.67   -14.448230    0      5      
iter:  15  21:01:31  -1.69  -3.11   -14.448150    0      3      
iter:  16  21:01:37  -1.49  -3.19   -14.448728    0      4      
iter:  17  21:01:43  -2.09  -3.43   -14.448982    0      3      
iter:  18  21:01:49  -1.85  -3.57   -14.449085    0      3      
iter:  19  21:01:55  -2.43  -3.69   -14.449323    0      2      
iter:  20  21:02:00  -2.21  -3.62   -14.448912    0      1      
iter:  21  21:02:05  -2.74  -3.55   -14.449327    0      2      
iter:  22  21:02:11  -2.53  -3.46   -14.449282    0      2      
iter:  23  21:02:17  -3.04  -3.46   -14.449216    0      3      
iter:  24  21:02:23  -2.83  -3.41   -14.449424    0      3      
iter:  25  21:02:29  -3.40  -3.49   -14.449377    0      3      
iter:  26  21:02:34  -3.27  -3.57   -14.449441    0      2      
iter:  27  21:02:40  -3.73  -3.64   -14.449431    0      3      
iter:  28  21:02:45  -3.62  -3.89   -14.449366    0      2      
iter:  29  21:02:51  -4.04  -4.16   -14.449280    0      2      
iter:  30  21:02:56  -3.95  -4.50   -14.449275    0      2      
iter:  31  21:03:01  -4.34  -4.61   -14.449231    0      1      
iter:  32  21:03:07  -4.26  -4.75   -14.449213    0      1      
iter:  33  21:03:12  -4.63  -4.85   -14.449262    0      1      
iter:  34  21:03:17  -4.55  -5.04   -14.449297    0      1      
iter:  35  21:03:22  -4.92  -5.04   -14.449305    0      1      
iter:  36  21:03:27  -4.84  -5.14   -14.449311    0      1      
iter:  37  21:03:32  -5.20  -5.19   -14.449365    0      1      
iter:  38  21:03:37  -5.13  -5.35   -14.449294    0      1      
iter:  39  21:03:42  -5.49  -5.44   -14.449275    0      1      
iter:  40  21:03:47  -5.42  -5.48   -14.449270    0      1      
iter:  41  21:03:52  -5.78  -5.49   -14.449264    0      1      
iter:  42  21:03:57  -5.71  -5.36   -14.449268    0      1      
iter:  43  21:04:02  -6.05  -5.33   -14.449265    0      1      
iter:  44  21:04:07  -5.99  -5.28   -14.449249    0      1      
iter:  45  21:04:12  -6.32  -5.16   -14.449265    0      1      
iter:  46  21:04:18  -6.27  -5.20   -14.449302    0      1      
iter:  47  21:04:23  -6.60  -5.43   -14.449298    0      1      
iter:  48  21:04:28  -6.56  -5.58   -14.449273    0      1      
iter:  49  21:04:33  -6.92  -5.62   -14.449277    0      1      
iter:  50  21:04:38  -6.83  -5.91   -14.449265    0      1      
iter:  51  21:04:43  -7.19  -6.13   -14.449260    0      1      
iter:  52  21:04:48  -7.15  -6.18   -14.449263    0      1      
iter:  53  21:04:53  -7.46  -6.25   -14.449264    0      1      

Converged after 53 iterations.

Dipole moment: (-0.926611, 1.207268, 0.263551) |e|*Ang

Energy contributions relative to reference atoms: (reference = -412395.464894)

Kinetic:        +23.631113
Potential:      -19.343267
External:        +0.000000
XC:             -18.591248
Entropy (-ST):   +0.000000
Local:           -0.145863
--------------------------
Free energy:    -14.449264
Extrapolated:   -14.449264

Fermi level: -4.93294

 Band  Eigenvalues  Occupancy
    0    -65.00218    2.00000
    1    -34.36810    2.00000
    2    -34.24845    2.00000
    3    -34.16997    2.00000
    4    -15.78303    2.00000
    5    -12.33664    2.00000
    6     -6.58912    2.00000
    7     -5.59629    2.00000
    8     -5.40741    2.00000
    9     -5.03388    2.00000
   10     -4.93294    1.00000
   11     -3.45743    0.00000
   12     -3.00744    0.00000
   13     -1.26694    0.00000
   14     -0.61008    0.00000
   15      0.59647    0.00000
   16      0.89523    0.00000
   17      1.60161    0.00000
   18      2.24564    0.00000
   19      2.58467    0.00000
   20      3.17362    0.00000

Writing to 3_57799_P1_PBE_zy0_2300.gpw (mode='all')

Timing:                              incl.     excl.
-----------------------------------------------------------
Hamiltonian:                         8.958     0.000   0.0% |
 Atomic:                             0.195     0.001   0.0% |
  XC Correction:                     0.194     0.194   0.1% |
 Calculate atomic Hamiltonians:      0.009     0.009   0.0% |
 Communicate:                        0.000     0.000   0.0% |
 Hartree integrate/restrict:         0.035     0.035   0.0% |
 Initialize Hamiltonian:             0.000     0.000   0.0% |
 Poisson:                            6.516     6.516   2.1% ||
 XC 3D grid:                         2.192     2.192   0.7% |
 vbar:                               0.011     0.011   0.0% |
LCAO initialization:                 0.816     0.567   0.2% |
 LCAO eigensolver:                   0.076     0.000   0.0% |
  Calculate projections:             0.000     0.000   0.0% |
  DenseAtomicCorrection:             0.000     0.000   0.0% |
  Distribute overlap matrix:         0.000     0.000   0.0% |
  Orbital Layouts:                   0.000     0.000   0.0% |
  Potential matrix:                  0.075     0.075   0.0% |
 LCAO to grid:                       0.170     0.170   0.1% |
 Set positions (LCAO WFS):           0.004     0.000   0.0% |
  Basic WFS set positions:           0.000     0.000   0.0% |
  Basis functions set positions:     0.000     0.000   0.0% |
  TCI: Calculate S, T, P:            0.003     0.003   0.0% |
SCF-cycle:                         298.532     0.021   0.0% |
 Davidson:                         111.952    20.468   6.6% |--|
  Apply hamiltonian:                 8.588     8.588   2.8% ||
  Subspace diag:                    32.131     0.005   0.0% |
   calc_h_matrix:                   16.014     7.402   2.4% ||
    Apply hamiltonian:               8.612     8.612   2.8% ||
   diagonalize:                      0.012     0.012   0.0% |
   rotate_psi:                      16.100    16.100   5.2% |-|
  calc. matrices:                   34.853    26.274   8.5% |--|
   Apply hamiltonian:                8.579     8.579   2.8% ||
  diagonalize:                       0.043     0.043   0.0% |
  rotate_psi:                       15.870    15.870   5.1% |-|
 Density:                            4.096     0.001   0.0% |
  Atomic density matrices:           0.034     0.034   0.0% |
  Mix:                               2.931     2.931   0.9% |
  Multipole moments:                 0.009     0.009   0.0% |
  Pseudo density:                    1.120     1.120   0.4% |
   Symmetrize density:               0.001     0.001   0.0% |
 Hamiltonian:                      182.261     0.006   0.0% |
  Atomic:                            9.781     0.044   0.0% |
   XC Correction:                    9.738     9.738   3.1% ||
  Calculate atomic Hamiltonians:     0.435     0.435   0.1% |
  Communicate:                       0.000     0.000   0.0% |
  Hartree integrate/restrict:        1.734     1.734   0.6% |
  Poisson:                          60.227    60.227  19.5% |-------|
  XC 3D grid:                      109.762   109.762  35.5% |-------------|
  vbar:                              0.316     0.316   0.1% |
 Orthonormalize:                     0.203     0.000   0.0% |
  calc_s_matrix:                     0.075     0.075   0.0% |
  inverse-cholesky:                  0.000     0.000   0.0% |
  projections:                       0.028     0.028   0.0% |
  rotate_psi_s:                      0.099     0.099   0.0% |
Set symmetry:                        0.001     0.001   0.0% |
Other:                               1.131     1.131   0.4% |
-----------------------------------------------------------
Total:                                       309.439 100.0%

Memory usage: 638.13 MiB
Date: Mon Aug 20 21:04:53 2018
