
  ___ ___ ___ _ _ _  
 |   |   |_  | | | | 
 | | | | | . | | | | 
 |__ |  _|___|_____|  1.4.0
 |___|_|             

User:   ???@3fe09ff0504a
Date:   Mon Aug 20 19:59:50 2018
Arch:   x86_64
Pid:    1882
Python: 3.7.0
gpaw:   /app/gpaw/software/venv/lib/python3.7/site-packages/gpaw
_gpaw:  /app/gpaw/software/venv/lib/python3.7/site-packages/
        _gpaw.cpython-37m-x86_64-linux-gnu.so
ase:    /app/gpaw/software/venv/lib/python3.7/site-packages/ase (version 3.16.2)
numpy:  /app/gpaw/software/venv/lib/python3.7/site-packages/numpy (version 1.15.0)
scipy:  /app/gpaw/software/venv/lib/python3.7/site-packages/scipy (version 1.1.0)
units:  Angstrom and eV
cores:  1

Input parameters:
  gpts: [72 64 72]
  maxiter: 150
  mixer: {backend: pulay,
          beta: None,
          method: separate,
          nmaxold: None,
          weight: None}
  xc: PBE

System changes: positions, numbers, cell, pbc, initial_charges, initial_magmoms 

Initialize ...

Hf-setup:
  name: Hafnium
  id: d03a45b6fa1dd7f07e443d1513edf499
  Z: 72
  valence: 12
  core: 60
  charge: 0.0
  file: /app/gpaw/datasets/Hf.PBE
  cutoffs: 1.30(comp), 2.36(filt), 4.02(core), lmax=2
  valence states:
                energy  radius
    5s(2.00)   -66.831   1.397
    6s(2.00)    -5.097   1.397
    5p(6.00)   -35.599   1.307
    6p(0.00)    -1.401   1.307
    5d(2.00)    -2.699   1.334
    *d          24.513   1.334

  Using partial waves for Hf as LCAO basis

N-setup:
  name: Nitrogen
  id: 45c8c9c739e7b131496b9fd2deb94bff
  Z: 7
  valence: 5
  core: 2
  charge: 0.0
  file: /app/gpaw/datasets/N.PBE
  cutoffs: 0.58(comp), 1.11(filt), 0.96(core), lmax=2
  valence states:
                energy  radius
    2s(2.00)   -18.583   0.603
    2p(3.00)    -7.089   0.529
    *s           8.629   0.603
    *p          20.123   0.529
    *d           0.000   0.577

  Using partial waves for N as LCAO basis

C-setup:
  name: Carbon
  id: 2f012631b351e3618121587a96c50fca
  Z: 6
  valence: 4
  core: 2
  charge: 0.0
  file: /app/gpaw/datasets/C.PBE
  cutoffs: 0.64(comp), 1.14(filt), 1.14(core), lmax=2
  valence states:
                energy  radius
    2s(2.00)   -13.751   0.635
    2p(2.00)    -5.285   0.635
    *s          13.461   0.635
    *p          21.927   0.635
    *d           0.000   0.635

  Using partial waves for C as LCAO basis

Reference energy: -412395.464894

Spin-paired calculation

Occupation numbers:
  Fermi-Dirac: width=0.0000 eV

Convergence criteria:
  Maximum total energy change: 0.0005 eV / electron
  Maximum integral of absolute density change: 0.0001 electrons
  Maximum integral of absolute eigenstate change: 4e-08 eV^2
  Maximum number of iterations: 150

Symmetries present (total): 1

  ( 1  0  0)
  ( 0  1  0)
  ( 0  0  1)

1 k-point (Gamma)
1 k-point in the irreducible part of the Brillouin zone
       k-points in crystal coordinates                weights
   0:     0.00000000    0.00000000    0.00000000          1/1

Wave functions: Uniform real-space grid
  Kinetic energy operator: 6*3+1=19 point O(h^6) finite-difference Laplacian
  ScaLapack parameters: grid=1x1, blocksize=None 

Eigensolver
   Davidson(niter=1, smin=None, normalize=True) 

Densities:
  Coarse grid: 72*64*72 grid
  Fine grid: 144*128*144 grid
  Total Charge: 0.000000 

Density mixing:
  Method: separate
  Backend: pulay
  Linear mixing parameter: 0.25
  Mixing with 3 old densities
  No damping of long wave oscillations 

Hamiltonian:
  XC and Coulomb potentials evaluated on a 144*128*144 grid
  Using the PBE Exchange-Correlation functional
  Interpolation: tri-quintic (5. degree polynomial)
  Poisson solver: Jacobi solver with 5 multi-grid levels
    Coarsest grid: 9 x 8 x 9 points
    Stencil: 6*3+1=19 point O(h^6) finite-difference Laplacian
    Max iterations: 1000
    Tolerance: 2.000000e-10 

Memory estimate:
  Process memory now: 604.35 MiB
  Calculator: 325.36 MiB
    Density: 113.90 MiB
      Arrays: 64.29 MiB
      Localized functions: 35.07 MiB
      Mixer: 14.54 MiB
    Hamiltonian: 92.51 MiB
      Arrays: 42.05 MiB
      XC: 0.00 MiB
      Poisson: 48.10 MiB
      vbar: 2.35 MiB
    Wavefunctions: 118.96 MiB
      Arrays psit_nG: 50.88 MiB
      Eigensolver: 63.03 MiB
      Projections: 0.01 MiB
      Projectors: 5.04 MiB

Total number of cores used: 1

Number of atoms: 3
Number of atomic orbitals: 21
Number of bands in calculation: 21
Bands to converge: occupied states only
Number of valence electrons: 21

... initialized

Initializing position-dependent things.

Density initialized from atomic densities
Creating initial wave functions:
  21 bands from LCAO basis set

      .--------------------.  
     /|                    |  
    / |                    |  
   /  |                    |  
  /   |                    |  
 *    |                    |  
 |    |                    |  
 |    |     Hf   C         |  
 |    |    N               |  
 |    |                    |  
 |    .--------------------.  
 |   /                    /   
 |  /                    /    
 | /                    /     
 |/                    /      
 *--------------------*       

Positions:
   0 Hf     3.350050    4.891250    4.310000    ( 0.0000,  0.0000,  0.0000)
   1 N      3.350050    3.108750    4.190000    ( 0.0000,  0.0000,  0.0000)
   2 C      5.149950    4.891250    4.190000    ( 0.0000,  0.0000,  0.0000)

Unit cell:
           periodic     x           y           z      points  spacing
  1. axis:    no     8.500000    0.000000    0.000000    72     0.1181
  2. axis:    no     0.000000    8.000000    0.000000    64     0.1250
  3. axis:    no     0.000000    0.000000    8.500000    72     0.1181

  Lengths:   8.500000   8.000000   8.500000
  Angles:   90.000000  90.000000  90.000000

Effective grid spacing dv^(1/3) = 0.1203

                     log10-error:    total        iterations:
           time      wfs    density  energy       fermi  poisson
iter:   1  20:00:03  +2.41   +inf   -18.597700    0      15     
iter:   2  20:00:05  +1.17   +inf   -19.185806    0             
iter:   3  20:00:07  +0.60   +inf   -19.375685    0             
iter:   4  20:00:16  +0.61  -0.70   -16.404508    0      11     
iter:   5  20:00:25  +0.86  -0.77   -15.263540    0      9      
iter:   6  20:00:33  +0.53  -0.97   -14.486102    0      9      
iter:   7  20:00:42  +0.22  -1.20   -14.350049    0      9      
iter:   8  20:00:49  +0.51  -1.50   -14.373290    0      7      
iter:   9  20:00:57  -0.23  -1.68   -14.378379    0      7      
iter:  10  20:01:04  +0.13  -1.97   -14.382597    0      5      
iter:  11  20:01:11  -0.78  -2.22   -14.384516    0      5      
iter:  12  20:01:17  -0.63  -2.43   -14.386108    0      4      
iter:  13  20:01:23  -1.23  -2.61   -14.387124    0      4      
iter:  14  20:01:30  -1.10  -2.66   -14.387797    0      5      
iter:  15  20:01:37  -1.70  -3.11   -14.387727    0      4      
iter:  16  20:01:42  -1.46  -3.19   -14.388177    0      3      
iter:  17  20:01:48  -2.12  -3.26   -14.388478    0      3      
iter:  18  20:01:54  -1.83  -3.24   -14.388693    0      3      
iter:  19  20:02:00  -2.48  -3.47   -14.388860    0      3      
iter:  20  20:02:06  -2.24  -3.77   -14.388913    0      2      
iter:  21  20:02:12  -2.80  -3.83   -14.388940    0      3      
iter:  22  20:02:17  -2.65  -4.31   -14.388648    0      2      
iter:  23  20:02:23  -3.09  -4.20   -14.388787    0      2      
iter:  24  20:02:28  -2.97  -4.18   -14.388735    0      1      
iter:  25  20:02:33  -3.38  -4.08   -14.388592    0      1      
iter:  26  20:02:38  -3.26  -3.96   -14.388978    0      1      
iter:  27  20:02:43  -3.67  -3.97   -14.388902    0      1      
iter:  28  20:02:49  -3.56  -3.92   -14.388544    0      3      
iter:  29  20:02:55  -3.58  -3.49   -14.389053    0      3      
iter:  30  20:03:01  -4.01  -4.07   -14.388992    0      2      
iter:  31  20:03:06  -4.12  -4.21   -14.388906    0      2      
iter:  32  20:03:11  -4.33  -4.44   -14.388747    0      1      
iter:  33  20:03:17  -4.49  -4.50   -14.388772    0      2      
iter:  34  20:03:22  -4.66  -4.97   -14.388764    0      1      
iter:  35  20:03:27  -4.79  -5.03   -14.388782    0      1      
iter:  36  20:03:32  -4.96  -5.07   -14.388790    0      1      
iter:  37  20:03:37  -5.10  -5.13   -14.388807    0      1      
iter:  38  20:03:42  -5.26  -5.03   -14.388775    0      1      
iter:  39  20:03:47  -5.39  -5.12   -14.388795    0      1      
iter:  40  20:03:52  -5.52  -5.56   -14.388778    0      1      
iter:  41  20:03:57  -5.68  -5.32   -14.388786    0      1      
iter:  42  20:04:03  -5.79  -5.87   -14.388775    0      1      
iter:  43  20:04:08  -5.97  -5.90   -14.388774    0      1      
iter:  44  20:04:13  -6.07  -5.85   -14.388770    0      1      
iter:  45  20:04:18  -6.25  -5.65   -14.388765    0      1      
iter:  46  20:04:23  -6.33  -5.61   -14.388770    0      1      
iter:  47  20:04:28  -6.50  -5.58   -14.388783    0      1      
iter:  48  20:04:33  -6.63  -5.45   -14.388755    0      1      
iter:  49  20:04:38  -6.73  -5.51   -14.388779    0      1      
iter:  50  20:04:43  -6.91  -5.41   -14.388775    0      1      
iter:  51  20:04:48  -7.01  -5.50   -14.388794    0      1      
iter:  52  20:04:53  -7.18  -5.77   -14.388776    0      1      
iter:  53  20:04:59  -7.31  -5.96   -14.388771    0      1      
iter:  54  20:05:04  -7.45  -6.20   -14.388766    0      1      

Converged after 54 iterations.

Dipole moment: (-0.928854, 1.205248, 0.137643) |e|*Ang

Energy contributions relative to reference atoms: (reference = -412395.464894)

Kinetic:        +25.654108
Potential:      -20.962042
External:        +0.000000
XC:             -18.945244
Entropy (-ST):   +0.000000
Local:           -0.135589
--------------------------
Free energy:    -14.388766
Extrapolated:   -14.388766

Fermi level: -4.90532

 Band  Eigenvalues  Occupancy
    0    -64.94871    2.00000
    1    -34.33853    2.00000
    2    -34.19594    2.00000
    3    -34.15535    2.00000
    4    -15.78614    2.00000
    5    -12.31950    2.00000
    6     -6.63289    2.00000
    7     -5.62745    2.00000
    8     -5.42494    2.00000
    9     -5.06735    2.00000
   10     -4.90532    1.00000
   11     -3.47900    0.00000
   12     -2.98855    0.00000
   13     -1.24541    0.00000
   14     -0.56420    0.00000
   15      0.68108    0.00000
   16      0.95592    0.00000
   17      1.66969    0.00000
   18      2.29231    0.00000
   19      2.63562    0.00000
   20      3.17612    0.00000

Writing to 3_57799_P1_PBE_zy0_12.gpw (mode='all')

Timing:                              incl.     excl.
-----------------------------------------------------------
Hamiltonian:                         8.884     0.000   0.0% |
 Atomic:                             0.197     0.001   0.0% |
  XC Correction:                     0.196     0.196   0.1% |
 Calculate atomic Hamiltonians:      0.009     0.009   0.0% |
 Communicate:                        0.000     0.000   0.0% |
 Hartree integrate/restrict:         0.035     0.035   0.0% |
 Initialize Hamiltonian:             0.000     0.000   0.0% |
 Poisson:                            6.459     6.459   2.1% ||
 XC 3D grid:                         2.174     2.174   0.7% |
 vbar:                               0.011     0.011   0.0% |
LCAO initialization:                 0.817     0.566   0.2% |
 LCAO eigensolver:                   0.076     0.000   0.0% |
  Calculate projections:             0.000     0.000   0.0% |
  DenseAtomicCorrection:             0.000     0.000   0.0% |
  Distribute overlap matrix:         0.000     0.000   0.0% |
  Orbital Layouts:                   0.000     0.000   0.0% |
  Potential matrix:                  0.076     0.076   0.0% |
 LCAO to grid:                       0.171     0.171   0.1% |
 Set positions (LCAO WFS):           0.004     0.000   0.0% |
  Basic WFS set positions:           0.000     0.000   0.0% |
  Basis functions set positions:     0.000     0.000   0.0% |
  TCI: Calculate S, T, P:            0.003     0.003   0.0% |
SCF-cycle:                         303.292     0.021   0.0% |
 Davidson:                         114.756    20.919   6.7% |--|
  Apply hamiltonian:                 8.780     8.780   2.8% ||
  Subspace diag:                    32.836     0.006   0.0% |
   calc_h_matrix:                   16.175     7.387   2.4% ||
    Apply hamiltonian:               8.788     8.788   2.8% ||
   diagonalize:                      0.012     0.012   0.0% |
   rotate_psi:                      16.643    16.643   5.3% |-|
  calc. matrices:                   35.599    26.826   8.5% |--|
   Apply hamiltonian:                8.773     8.773   2.8% ||
  diagonalize:                       0.044     0.044   0.0% |
  rotate_psi:                       16.579    16.579   5.3% |-|
 Density:                            4.175     0.001   0.0% |
  Atomic density matrices:           0.035     0.035   0.0% |
  Mix:                               2.985     2.985   1.0% |
  Multipole moments:                 0.009     0.009   0.0% |
  Pseudo density:                    1.144     1.144   0.4% |
   Symmetrize density:               0.001     0.001   0.0% |
 Hamiltonian:                      184.137     0.006   0.0% |
  Atomic:                           10.053     0.044   0.0% |
   XC Correction:                   10.009    10.009   3.2% ||
  Calculate atomic Hamiltonians:     0.448     0.448   0.1% |
  Communicate:                       0.000     0.000   0.0% |
  Hartree integrate/restrict:        1.755     1.755   0.6% |
  Poisson:                          59.738    59.738  19.0% |-------|
  XC 3D grid:                      111.815   111.815  35.6% |-------------|
  vbar:                              0.323     0.323   0.1% |
 Orthonormalize:                     0.203     0.000   0.0% |
  calc_s_matrix:                     0.073     0.073   0.0% |
  inverse-cholesky:                  0.000     0.000   0.0% |
  projections:                       0.029     0.029   0.0% |
  rotate_psi_s:                      0.100     0.100   0.0% |
Set symmetry:                        0.001     0.001   0.0% |
Other:                               1.131     1.131   0.4% |
-----------------------------------------------------------
Total:                                       314.126 100.0%

Memory usage: 604.35 MiB
Date: Mon Aug 20 20:05:04 2018
