
  ___ ___ ___ _ _ _  
 |   |   |_  | | | | 
 | | | | | . | | | | 
 |__ |  _|___|_____|  1.4.0
 |___|_|             

User:   ???@3fe09ff0504a
Date:   Mon Aug 20 21:26:04 2018
Arch:   x86_64
Pid:    1882
Python: 3.7.0
gpaw:   /app/gpaw/software/venv/lib/python3.7/site-packages/gpaw
_gpaw:  /app/gpaw/software/venv/lib/python3.7/site-packages/
        _gpaw.cpython-37m-x86_64-linux-gnu.so
ase:    /app/gpaw/software/venv/lib/python3.7/site-packages/ase (version 3.16.2)
numpy:  /app/gpaw/software/venv/lib/python3.7/site-packages/numpy (version 1.15.0)
scipy:  /app/gpaw/software/venv/lib/python3.7/site-packages/scipy (version 1.1.0)
units:  Angstrom and eV
cores:  1

Input parameters:
  gpts: [72 64 72]
  maxiter: 150
  mixer: {backend: pulay,
          beta: None,
          method: separate,
          nmaxold: None,
          weight: None}
  xc: PBE

System changes: positions, numbers, cell, pbc, initial_charges, initial_magmoms 

Initialize ...

Hf-setup:
  name: Hafnium
  id: d03a45b6fa1dd7f07e443d1513edf499
  Z: 72
  valence: 12
  core: 60
  charge: 0.0
  file: /app/gpaw/datasets/Hf.PBE
  cutoffs: 1.30(comp), 2.36(filt), 4.02(core), lmax=2
  valence states:
                energy  radius
    5s(2.00)   -66.831   1.397
    6s(2.00)    -5.097   1.397
    5p(6.00)   -35.599   1.307
    6p(0.00)    -1.401   1.307
    5d(2.00)    -2.699   1.334
    *d          24.513   1.334

  Using partial waves for Hf as LCAO basis

N-setup:
  name: Nitrogen
  id: 45c8c9c739e7b131496b9fd2deb94bff
  Z: 7
  valence: 5
  core: 2
  charge: 0.0
  file: /app/gpaw/datasets/N.PBE
  cutoffs: 0.58(comp), 1.11(filt), 0.96(core), lmax=2
  valence states:
                energy  radius
    2s(2.00)   -18.583   0.603
    2p(3.00)    -7.089   0.529
    *s           8.629   0.603
    *p          20.123   0.529
    *d           0.000   0.577

  Using partial waves for N as LCAO basis

C-setup:
  name: Carbon
  id: 2f012631b351e3618121587a96c50fca
  Z: 6
  valence: 4
  core: 2
  charge: 0.0
  file: /app/gpaw/datasets/C.PBE
  cutoffs: 0.64(comp), 1.14(filt), 1.14(core), lmax=2
  valence states:
                energy  radius
    2s(2.00)   -13.751   0.635
    2p(2.00)    -5.285   0.635
    *s          13.461   0.635
    *p          21.927   0.635
    *d           0.000   0.635

  Using partial waves for C as LCAO basis

Reference energy: -412395.464894

Spin-paired calculation

Occupation numbers:
  Fermi-Dirac: width=0.0000 eV

Convergence criteria:
  Maximum total energy change: 0.0005 eV / electron
  Maximum integral of absolute density change: 0.0001 electrons
  Maximum integral of absolute eigenstate change: 4e-08 eV^2
  Maximum number of iterations: 150

Symmetries present (total): 1

  ( 1  0  0)
  ( 0  1  0)
  ( 0  0  1)

1 k-point (Gamma)
1 k-point in the irreducible part of the Brillouin zone
       k-points in crystal coordinates                weights
   0:     0.00000000    0.00000000    0.00000000          1/1

Wave functions: Uniform real-space grid
  Kinetic energy operator: 6*3+1=19 point O(h^6) finite-difference Laplacian
  ScaLapack parameters: grid=1x1, blocksize=None 

Eigensolver
   Davidson(niter=1, smin=None, normalize=True) 

Densities:
  Coarse grid: 72*64*72 grid
  Fine grid: 144*128*144 grid
  Total Charge: 0.000000 

Density mixing:
  Method: separate
  Backend: pulay
  Linear mixing parameter: 0.25
  Mixing with 3 old densities
  No damping of long wave oscillations 

Hamiltonian:
  XC and Coulomb potentials evaluated on a 144*128*144 grid
  Using the PBE Exchange-Correlation functional
  Interpolation: tri-quintic (5. degree polynomial)
  Poisson solver: Jacobi solver with 5 multi-grid levels
    Coarsest grid: 9 x 8 x 9 points
    Stencil: 6*3+1=19 point O(h^6) finite-difference Laplacian
    Max iterations: 1000
    Tolerance: 2.000000e-10 

Memory estimate:
  Process memory now: 642.37 MiB
  Calculator: 325.36 MiB
    Density: 113.90 MiB
      Arrays: 64.29 MiB
      Localized functions: 35.07 MiB
      Mixer: 14.54 MiB
    Hamiltonian: 92.51 MiB
      Arrays: 42.05 MiB
      XC: 0.00 MiB
      Poisson: 48.10 MiB
      vbar: 2.35 MiB
    Wavefunctions: 118.96 MiB
      Arrays psit_nG: 50.88 MiB
      Eigensolver: 63.03 MiB
      Projections: 0.01 MiB
      Projectors: 5.04 MiB

Total number of cores used: 1

Number of atoms: 3
Number of atomic orbitals: 21
Number of bands in calculation: 21
Bands to converge: occupied states only
Number of valence electrons: 21

... initialized

Initializing position-dependent things.

Density initialized from atomic densities
Creating initial wave functions:
  21 bands from LCAO basis set

      .--------------------.  
     /|                    |  
    / |                    |  
   /  |                    |  
  /   |                    |  
 *    |                    |  
 |    |                    |  
 |    |     Hf   C         |  
 |    |    N               |  
 |    |                    |  
 |    .--------------------.  
 |   /                    /   
 |  /                    /    
 | /                    /     
 |/                    /      
 *--------------------*       

Positions:
   0 Hf     3.350050    4.891250    4.390000    ( 0.0000,  0.0000,  0.0000)
   1 N      3.350050    3.108750    4.110000    ( 0.0000,  0.0000,  0.0000)
   2 C      5.149950    4.891250    4.110000    ( 0.0000,  0.0000,  0.0000)

Unit cell:
           periodic     x           y           z      points  spacing
  1. axis:    no     8.500000    0.000000    0.000000    72     0.1181
  2. axis:    no     0.000000    8.000000    0.000000    64     0.1250
  3. axis:    no     0.000000    0.000000    8.500000    72     0.1181

  Lengths:   8.500000   8.000000   8.500000
  Angles:   90.000000  90.000000  90.000000

Effective grid spacing dv^(1/3) = 0.1203

                     log10-error:    total        iterations:
           time      wfs    density  energy       fermi  poisson
iter:   1  21:26:17  +2.41   +inf   -18.746642    0      15     
iter:   2  21:26:19  +1.14   +inf   -19.306155    0             
iter:   3  21:26:21  +0.59   +inf   -19.485835    0             
iter:   4  21:26:31  +0.61  -0.70   -16.538938    0      11     
iter:   5  21:26:39  +0.86  -0.77   -15.362749    0      9      
iter:   6  21:26:48  +0.52  -0.97   -14.599808    0      9      
iter:   7  21:26:56  +0.19  -1.19   -14.449267    0      9      
iter:   8  21:27:04  +0.48  -1.49   -14.467421    0      8      
iter:   9  21:27:12  -0.22  -1.69   -14.473861    0      7      
iter:  10  21:27:18  +0.09  -1.94   -14.478135    0      5      
iter:  11  21:27:25  -0.76  -2.01   -14.481841    0      5      
iter:  12  21:27:32  -0.47  -2.12   -14.482694    0      5      
iter:  13  21:27:38  -1.28  -2.23   -14.483831    0      4      
iter:  14  21:27:45  -1.00  -2.29   -14.483328    0      5      
iter:  15  21:27:51  -1.80  -2.63   -14.483662    0      4      
iter:  16  21:27:57  -1.54  -2.71   -14.483789    0      3      
iter:  17  21:28:03  -2.18  -2.83   -14.484045    0      3      
iter:  18  21:28:09  -1.96  -2.90   -14.484175    0      3      
iter:  19  21:28:15  -2.52  -3.00   -14.484324    0      4      
iter:  20  21:28:21  -2.37  -3.47   -14.484157    0      3      
iter:  21  21:28:27  -2.86  -3.46   -14.484263    0      3      
iter:  22  21:28:33  -2.72  -3.78   -14.484180    0      2      
iter:  23  21:28:38  -3.17  -3.92   -14.484236    0      2      
iter:  24  21:28:44  -3.05  -3.91   -14.484276    0      3      
iter:  25  21:28:49  -3.46  -4.29   -14.484307    0      2      
iter:  26  21:28:54  -3.37  -4.46   -14.484312    0      1      
iter:  27  21:28:59  -3.76  -4.38   -14.484201    0      1      
iter:  28  21:29:04  -3.67  -4.17   -14.484221    0      1      
iter:  29  21:29:10  -4.05  -4.13   -14.484328    0      2      
iter:  30  21:29:15  -3.98  -4.18   -14.484412    0      1      
iter:  31  21:29:21  -4.35  -4.18   -14.484340    0      3      
iter:  32  21:29:26  -4.37  -4.43   -14.484174    0      2      
iter:  33  21:29:31  -4.59  -4.55   -14.484292    0      1      
iter:  34  21:29:37  -4.70  -4.89   -14.484298    0      1      
iter:  35  21:29:42  -4.90  -5.10   -14.484319    0      1      
iter:  36  21:29:47  -5.00  -5.26   -14.484314    0      1      
iter:  37  21:29:52  -5.20  -5.31   -14.484312    0      1      
iter:  38  21:29:57  -5.29  -5.29   -14.484330    0      1      
iter:  39  21:30:02  -5.51  -5.49   -14.484299    0      1      
iter:  40  21:30:07  -5.57  -5.57   -14.484299    0      1      
iter:  41  21:30:12  -5.80  -5.77   -14.484271    0      1      
iter:  42  21:30:17  -5.85  -5.77   -14.484273    0      1      
iter:  43  21:30:22  -6.08  -5.93   -14.484267    0      1      
iter:  44  21:30:27  -6.13  -6.18   -14.484265    0      1      
iter:  45  21:30:32  -6.36  -6.38   -14.484264    0      1      
iter:  46  21:30:37  -6.41  -6.52   -14.484263    0      1      
iter:  47  21:30:42  -6.65  -6.36   -14.484260    0      1      
iter:  48  21:30:47  -6.68  -6.11   -14.484258    0      1      
iter:  49  21:30:52  -6.92  -5.97   -14.484259    0      1      
iter:  50  21:30:57  -6.95  -5.90   -14.484260    0      1      
iter:  51  21:31:02  -7.19  -5.81   -14.484255    0      1      
iter:  52  21:31:07  -7.21  -5.72   -14.484268    0      1      
iter:  53  21:31:12  -7.47  -5.80   -14.484264    0      1      

Converged after 53 iterations.

Dipole moment: (-0.924903, 1.208303, 0.320537) |e|*Ang

Energy contributions relative to reference atoms: (reference = -412395.464894)

Kinetic:        +22.321862
Potential:      -18.294043
External:        +0.000000
XC:             -18.360075
Entropy (-ST):   +0.000000
Local:           -0.152008
--------------------------
Free energy:    -14.484264
Extrapolated:   -14.484264

Fermi level: -4.95118

 Band  Eigenvalues  Occupancy
    0    -65.03803    2.00000
    1    -34.38835    2.00000
    2    -34.28325    2.00000
    3    -34.18129    2.00000
    4    -15.78062    2.00000
    5    -12.34769    2.00000
    6     -6.56087    2.00000
    7     -5.57665    2.00000
    8     -5.39635    2.00000
    9     -5.01199    2.00000
   10     -4.95118    1.00000
   11     -3.44308    0.00000
   12     -3.01994    0.00000
   13     -1.28138    0.00000
   14     -0.64019    0.00000
   15      0.54178    0.00000
   16      0.85518    0.00000
   17      1.55273    0.00000
   18      2.21447    0.00000
   19      2.55548    0.00000
   20      3.17145    0.00000

Writing to 3_57799_P1_PBE_zy0_2800.gpw (mode='all')

Timing:                              incl.     excl.
-----------------------------------------------------------
Hamiltonian:                         8.861     0.000   0.0% |
 Atomic:                             0.195     0.001   0.0% |
  XC Correction:                     0.194     0.194   0.1% |
 Calculate atomic Hamiltonians:      0.009     0.009   0.0% |
 Communicate:                        0.000     0.000   0.0% |
 Hartree integrate/restrict:         0.034     0.034   0.0% |
 Initialize Hamiltonian:             0.000     0.000   0.0% |
 Poisson:                            6.430     6.430   2.1% ||
 XC 3D grid:                         2.181     2.181   0.7% |
 vbar:                               0.011     0.011   0.0% |
LCAO initialization:                 0.736     0.488   0.2% |
 LCAO eigensolver:                   0.075     0.000   0.0% |
  Calculate projections:             0.000     0.000   0.0% |
  DenseAtomicCorrection:             0.000     0.000   0.0% |
  Distribute overlap matrix:         0.000     0.000   0.0% |
  Orbital Layouts:                   0.000     0.000   0.0% |
  Potential matrix:                  0.075     0.075   0.0% |
 LCAO to grid:                       0.170     0.170   0.1% |
 Set positions (LCAO WFS):           0.004     0.000   0.0% |
  Basic WFS set positions:           0.000     0.000   0.0% |
  Basis functions set positions:     0.000     0.000   0.0% |
  TCI: Calculate S, T, P:            0.003     0.003   0.0% |
SCF-cycle:                         297.514     0.021   0.0% |
 Davidson:                         110.791    20.170   6.5% |--|
  Apply hamiltonian:                 8.548     8.548   2.8% ||
  Subspace diag:                    31.504     0.005   0.0% |
   calc_h_matrix:                   15.626     7.086   2.3% ||
    Apply hamiltonian:               8.540     8.540   2.8% ||
   diagonalize:                      0.012     0.012   0.0% |
   rotate_psi:                      15.861    15.861   5.1% |-|
  calc. matrices:                   34.691    26.146   8.5% |--|
   Apply hamiltonian:                8.545     8.545   2.8% ||
  diagonalize:                       0.043     0.043   0.0% |
  rotate_psi:                       15.835    15.835   5.1% |-|
 Density:                            4.048     0.001   0.0% |
  Atomic density matrices:           0.034     0.034   0.0% |
  Mix:                               2.899     2.899   0.9% |
  Multipole moments:                 0.009     0.009   0.0% |
  Pseudo density:                    1.105     1.104   0.4% |
   Symmetrize density:               0.001     0.001   0.0% |
 Hamiltonian:                      182.455     0.006   0.0% |
  Atomic:                            9.776     0.043   0.0% |
   XC Correction:                    9.733     9.733   3.2% ||
  Calculate atomic Hamiltonians:     0.434     0.434   0.1% |
  Communicate:                       0.000     0.000   0.0% |
  Hartree integrate/restrict:        1.704     1.704   0.6% |
  Poisson:                          60.632    60.632  19.7% |-------|
  XC 3D grid:                      109.589   109.589  35.6% |-------------|
  vbar:                              0.315     0.315   0.1% |
 Orthonormalize:                     0.200     0.000   0.0% |
  calc_s_matrix:                     0.073     0.073   0.0% |
  inverse-cholesky:                  0.000     0.000   0.0% |
  projections:                       0.029     0.029   0.0% |
  rotate_psi_s:                      0.098     0.098   0.0% |
Set symmetry:                        0.001     0.001   0.0% |
Other:                               1.122     1.122   0.4% |
-----------------------------------------------------------
Total:                                       308.233 100.0%

Memory usage: 642.37 MiB
Date: Mon Aug 20 21:31:12 2018
