
  ___ ___ ___ _ _ _  
 |   |   |_  | | | | 
 | | | | | . | | | | 
 |__ |  _|___|_____|  1.4.0
 |___|_|             

User:   ???@3fe09ff0504a
Date:   Mon Aug 20 21:36:27 2018
Arch:   x86_64
Pid:    1882
Python: 3.7.0
gpaw:   /app/gpaw/software/venv/lib/python3.7/site-packages/gpaw
_gpaw:  /app/gpaw/software/venv/lib/python3.7/site-packages/
        _gpaw.cpython-37m-x86_64-linux-gnu.so
ase:    /app/gpaw/software/venv/lib/python3.7/site-packages/ase (version 3.16.2)
numpy:  /app/gpaw/software/venv/lib/python3.7/site-packages/numpy (version 1.15.0)
scipy:  /app/gpaw/software/venv/lib/python3.7/site-packages/scipy (version 1.1.0)
units:  Angstrom and eV
cores:  1

Input parameters:
  gpts: [72 64 72]
  maxiter: 150
  mixer: {backend: pulay,
          beta: None,
          method: separate,
          nmaxold: None,
          weight: None}
  xc: PBE

System changes: positions, numbers, cell, pbc, initial_charges, initial_magmoms 

Initialize ...

Hf-setup:
  name: Hafnium
  id: d03a45b6fa1dd7f07e443d1513edf499
  Z: 72
  valence: 12
  core: 60
  charge: 0.0
  file: /app/gpaw/datasets/Hf.PBE
  cutoffs: 1.30(comp), 2.36(filt), 4.02(core), lmax=2
  valence states:
                energy  radius
    5s(2.00)   -66.831   1.397
    6s(2.00)    -5.097   1.397
    5p(6.00)   -35.599   1.307
    6p(0.00)    -1.401   1.307
    5d(2.00)    -2.699   1.334
    *d          24.513   1.334

  Using partial waves for Hf as LCAO basis

N-setup:
  name: Nitrogen
  id: 45c8c9c739e7b131496b9fd2deb94bff
  Z: 7
  valence: 5
  core: 2
  charge: 0.0
  file: /app/gpaw/datasets/N.PBE
  cutoffs: 0.58(comp), 1.11(filt), 0.96(core), lmax=2
  valence states:
                energy  radius
    2s(2.00)   -18.583   0.603
    2p(3.00)    -7.089   0.529
    *s           8.629   0.603
    *p          20.123   0.529
    *d           0.000   0.577

  Using partial waves for N as LCAO basis

C-setup:
  name: Carbon
  id: 2f012631b351e3618121587a96c50fca
  Z: 6
  valence: 4
  core: 2
  charge: 0.0
  file: /app/gpaw/datasets/C.PBE
  cutoffs: 0.64(comp), 1.14(filt), 1.14(core), lmax=2
  valence states:
                energy  radius
    2s(2.00)   -13.751   0.635
    2p(2.00)    -5.285   0.635
    *s          13.461   0.635
    *p          21.927   0.635
    *d           0.000   0.635

  Using partial waves for C as LCAO basis

Reference energy: -412395.464894

Spin-paired calculation

Occupation numbers:
  Fermi-Dirac: width=0.0000 eV

Convergence criteria:
  Maximum total energy change: 0.0005 eV / electron
  Maximum integral of absolute density change: 0.0001 electrons
  Maximum integral of absolute eigenstate change: 4e-08 eV^2
  Maximum number of iterations: 150

Symmetries present (total): 1

  ( 1  0  0)
  ( 0  1  0)
  ( 0  0  1)

1 k-point (Gamma)
1 k-point in the irreducible part of the Brillouin zone
       k-points in crystal coordinates                weights
   0:     0.00000000    0.00000000    0.00000000          1/1

Wave functions: Uniform real-space grid
  Kinetic energy operator: 6*3+1=19 point O(h^6) finite-difference Laplacian
  ScaLapack parameters: grid=1x1, blocksize=None 

Eigensolver
   Davidson(niter=1, smin=None, normalize=True) 

Densities:
  Coarse grid: 72*64*72 grid
  Fine grid: 144*128*144 grid
  Total Charge: 0.000000 

Density mixing:
  Method: separate
  Backend: pulay
  Linear mixing parameter: 0.25
  Mixing with 3 old densities
  No damping of long wave oscillations 

Hamiltonian:
  XC and Coulomb potentials evaluated on a 144*128*144 grid
  Using the PBE Exchange-Correlation functional
  Interpolation: tri-quintic (5. degree polynomial)
  Poisson solver: Jacobi solver with 5 multi-grid levels
    Coarsest grid: 9 x 8 x 9 points
    Stencil: 6*3+1=19 point O(h^6) finite-difference Laplacian
    Max iterations: 1000
    Tolerance: 2.000000e-10 

Memory estimate:
  Process memory now: 642.37 MiB
  Calculator: 325.36 MiB
    Density: 113.90 MiB
      Arrays: 64.29 MiB
      Localized functions: 35.07 MiB
      Mixer: 14.54 MiB
    Hamiltonian: 92.51 MiB
      Arrays: 42.05 MiB
      XC: 0.00 MiB
      Poisson: 48.10 MiB
      vbar: 2.35 MiB
    Wavefunctions: 118.96 MiB
      Arrays psit_nG: 50.88 MiB
      Eigensolver: 63.03 MiB
      Projections: 0.01 MiB
      Projectors: 5.04 MiB

Total number of cores used: 1

Number of atoms: 3
Number of atomic orbitals: 21
Number of bands in calculation: 21
Bands to converge: occupied states only
Number of valence electrons: 21

... initialized

Initializing position-dependent things.

Density initialized from atomic densities
Creating initial wave functions:
  21 bands from LCAO basis set

      .--------------------.  
     /|                    |  
    / |                    |  
   /  |                    |  
  /   |                    |  
 *    |                    |  
 |    |                    |  
 |    |     Hf   C         |  
 |    |    N               |  
 |    |                    |  
 |    .--------------------.  
 |   /                    /   
 |  /                    /    
 | /                    /     
 |/                    /      
 *--------------------*       

Positions:
   0 Hf     3.350050    4.891250    4.400000    ( 0.0000,  0.0000,  0.0000)
   1 N      3.350050    3.108750    4.100000    ( 0.0000,  0.0000,  0.0000)
   2 C      5.149950    4.891250    4.100000    ( 0.0000,  0.0000,  0.0000)

Unit cell:
           periodic     x           y           z      points  spacing
  1. axis:    no     8.500000    0.000000    0.000000    72     0.1181
  2. axis:    no     0.000000    8.000000    0.000000    64     0.1250
  3. axis:    no     0.000000    0.000000    8.500000    72     0.1181

  Lengths:   8.500000   8.000000   8.500000
  Angles:   90.000000  90.000000  90.000000

Effective grid spacing dv^(1/3) = 0.1203

                     log10-error:    total        iterations:
           time      wfs    density  energy       fermi  poisson
iter:   1  21:36:40  +2.41   +inf   -18.770490    0      15     
iter:   2  21:36:42  +1.14   +inf   -19.324969    0             
iter:   3  21:36:44  +0.59   +inf   -19.503059    0             
iter:   4  21:36:53  +0.61  -0.70   -16.560528    0      11     
iter:   5  21:37:01  +0.87  -0.77   -15.377412    0      9      
iter:   6  21:37:10  +0.52  -0.97   -14.617105    0      9      
iter:   7  21:37:18  +0.19  -1.19   -14.464136    0      9      
iter:   8  21:37:26  +0.47  -1.48   -14.481202    0      8      
iter:   9  21:37:34  -0.18  -1.70   -14.492466    0      7      
iter:  10  21:37:42  +0.09  -1.26   -14.501061    0      7      
iter:  11  21:37:48  -0.82  -1.76   -14.495653    0      5      
iter:  12  21:37:55  -0.46  -1.94   -14.496726    0      5      
iter:  13  21:38:02  -1.32  -2.05   -14.497003    0      6      
iter:  14  21:38:09  -1.15  -2.30   -14.498849    0      5      
iter:  15  21:38:15  -1.56  -2.24   -14.497878    0      4      
iter:  16  21:38:22  -1.61  -2.52   -14.498173    0      4      
iter:  17  21:38:28  -1.89  -2.67   -14.498439    0      4      
iter:  18  21:38:34  -1.98  -2.79   -14.498713    0      4      
iter:  19  21:38:40  -2.30  -2.96   -14.498725    0      3      
iter:  20  21:38:46  -2.30  -3.06   -14.498774    0      3      
iter:  21  21:38:52  -2.66  -3.16   -14.498823    0      3      
iter:  22  21:38:58  -2.61  -3.31   -14.498912    0      3      
iter:  23  21:39:04  -2.99  -3.44   -14.499028    0      3      
iter:  24  21:39:09  -2.95  -3.68   -14.498919    0      2      
iter:  25  21:39:15  -3.28  -4.17   -14.498906    0      2      
iter:  26  21:39:20  -3.25  -4.24   -14.498931    0      2      
iter:  27  21:39:26  -3.57  -4.31   -14.498955    0      2      
iter:  28  21:39:31  -3.55  -4.37   -14.499012    0      1      
iter:  29  21:39:36  -3.84  -4.33   -14.499027    0      1      
iter:  30  21:39:41  -3.84  -4.32   -14.498950    0      1      
iter:  31  21:39:46  -4.12  -4.26   -14.498946    0      1      
iter:  32  21:39:51  -4.12  -4.25   -14.498888    0      1      
iter:  33  21:39:56  -4.38  -4.19   -14.499089    0      1      
iter:  34  21:40:01  -4.42  -4.19   -14.498780    0      1      
iter:  35  21:40:07  -4.63  -4.18   -14.499039    0      2      
iter:  36  21:40:12  -4.79  -4.34   -14.499057    0      1      
iter:  37  21:40:17  -4.93  -4.47   -14.499114    0      1      
iter:  38  21:40:22  -5.10  -4.67   -14.498972    0      2      
iter:  39  21:40:27  -5.24  -5.08   -14.498854    0      1      
iter:  40  21:40:32  -5.39  -5.08   -14.498894    0      1      
iter:  41  21:40:37  -5.52  -5.30   -14.498911    0      1      
iter:  42  21:40:42  -5.66  -5.45   -14.498899    0      1      
iter:  43  21:40:47  -5.80  -5.48   -14.498904    0      1      
iter:  44  21:40:52  -5.93  -5.52   -14.498911    0      1      
iter:  45  21:40:57  -6.07  -5.51   -14.498912    0      1      
iter:  46  21:41:02  -6.18  -5.51   -14.498898    0      1      
iter:  47  21:41:07  -6.35  -5.36   -14.498932    0      1      
iter:  48  21:41:12  -6.43  -5.56   -14.498916    0      1      
iter:  49  21:41:17  -6.64  -5.53   -14.498922    0      1      
iter:  50  21:41:23  -6.69  -5.40   -14.498894    0      1      
iter:  51  21:41:28  -6.90  -5.21   -14.498937    0      1      
iter:  52  21:41:33  -6.94  -5.53   -14.498927    0      1      
iter:  53  21:41:38  -7.18  -5.93   -14.498910    0      1      
iter:  54  21:41:43  -7.23  -6.00   -14.498911    0      1      
iter:  55  21:41:48  -7.46  -6.33   -14.498906    0      1      

Converged after 55 iterations.

Dipole moment: (-0.924093, 1.208699, 0.343259) |e|*Ang

Energy contributions relative to reference atoms: (reference = -412395.464894)

Kinetic:        +21.734987
Potential:      -17.823507
External:        +0.000000
XC:             -18.255692
Entropy (-ST):   +0.000000
Local:           -0.154694
--------------------------
Free energy:    -14.498906
Extrapolated:   -14.498906

Fermi level: -4.95952

 Band  Eigenvalues  Occupancy
    0    -65.05450    2.00000
    1    -34.39779    2.00000
    2    -34.29914    2.00000
    3    -34.18690    2.00000
    4    -15.77947    2.00000
    5    -12.35270    2.00000
    6     -6.54827    2.00000
    7     -5.56801    2.00000
    8     -5.39150    2.00000
    9     -5.00220    2.00000
   10     -4.95952    1.00000
   11     -3.43660    0.00000
   12     -3.02566    0.00000
   13     -1.28802    0.00000
   14     -0.65384    0.00000
   15      0.51718    0.00000
   16      0.83697    0.00000
   17      1.52876    0.00000
   18      2.20010    0.00000
   19      2.54184    0.00000
   20      3.16948    0.00000

Writing to 3_57799_P1_PBE_zy0_3000.gpw (mode='all')

Timing:                              incl.     excl.
-----------------------------------------------------------
Hamiltonian:                         8.881     0.000   0.0% |
 Atomic:                             0.195     0.001   0.0% |
  XC Correction:                     0.194     0.194   0.1% |
 Calculate atomic Hamiltonians:      0.009     0.009   0.0% |
 Communicate:                        0.000     0.000   0.0% |
 Hartree integrate/restrict:         0.036     0.036   0.0% |
 Initialize Hamiltonian:             0.000     0.000   0.0% |
 Poisson:                            6.456     6.456   2.0% ||
 XC 3D grid:                         2.174     2.174   0.7% |
 vbar:                               0.011     0.011   0.0% |
LCAO initialization:                 0.738     0.489   0.2% |
 LCAO eigensolver:                   0.077     0.000   0.0% |
  Calculate projections:             0.000     0.000   0.0% |
  DenseAtomicCorrection:             0.000     0.000   0.0% |
  Distribute overlap matrix:         0.000     0.000   0.0% |
  Orbital Layouts:                   0.000     0.000   0.0% |
  Potential matrix:                  0.076     0.076   0.0% |
 LCAO to grid:                       0.168     0.168   0.1% |
 Set positions (LCAO WFS):           0.004     0.000   0.0% |
  Basic WFS set positions:           0.000     0.000   0.0% |
  Basis functions set positions:     0.000     0.000   0.0% |
  TCI: Calculate S, T, P:            0.003     0.003   0.0% |
SCF-cycle:                         310.559     0.021   0.0% |
 Davidson:                         114.983    20.935   6.5% |--|
  Apply hamiltonian:                 8.884     8.884   2.8% ||
  Subspace diag:                    32.747     0.005   0.0% |
   calc_h_matrix:                   16.260     7.394   2.3% ||
    Apply hamiltonian:               8.866     8.866   2.8% ||
   diagonalize:                      0.012     0.012   0.0% |
   rotate_psi:                      16.469    16.469   5.1% |-|
  calc. matrices:                   35.948    27.088   8.4% |--|
   Apply hamiltonian:                8.860     8.860   2.8% ||
  diagonalize:                       0.044     0.044   0.0% |
  rotate_psi:                       16.425    16.425   5.1% |-|
 Density:                            4.206     0.001   0.0% |
  Atomic density matrices:           0.036     0.036   0.0% |
  Mix:                               3.012     3.012   0.9% |
  Multipole moments:                 0.009     0.009   0.0% |
  Pseudo density:                    1.147     1.146   0.4% |
   Symmetrize density:               0.001     0.001   0.0% |
 Hamiltonian:                      191.149     0.006   0.0% |
  Atomic:                           10.168     0.045   0.0% |
   XC Correction:                   10.124    10.124   3.2% ||
  Calculate atomic Hamiltonians:     0.452     0.452   0.1% |
  Communicate:                       0.000     0.000   0.0% |
  Hartree integrate/restrict:        1.776     1.776   0.6% |
  Poisson:                          64.579    64.579  20.1% |-------|
  XC 3D grid:                      113.845   113.845  35.4% |-------------|
  vbar:                              0.324     0.324   0.1% |
 Orthonormalize:                     0.199     0.000   0.0% |
  calc_s_matrix:                     0.073     0.073   0.0% |
  inverse-cholesky:                  0.000     0.000   0.0% |
  projections:                       0.029     0.029   0.0% |
  rotate_psi_s:                      0.098     0.098   0.0% |
Set symmetry:                        0.001     0.001   0.0% |
Other:                               1.111     1.111   0.3% |
-----------------------------------------------------------
Total:                                       321.289 100.0%

Memory usage: 642.37 MiB
Date: Mon Aug 20 21:41:48 2018
