
  ___ ___ ___ _ _ _  
 |   |   |_  | | | | 
 | | | | | . | | | | 
 |__ |  _|___|_____|  1.4.0
 |___|_|             

User:   ???@3fe09ff0504a
Date:   Mon Aug 20 21:52:25 2018
Arch:   x86_64
Pid:    1882
Python: 3.7.0
gpaw:   /app/gpaw/software/venv/lib/python3.7/site-packages/gpaw
_gpaw:  /app/gpaw/software/venv/lib/python3.7/site-packages/
        _gpaw.cpython-37m-x86_64-linux-gnu.so
ase:    /app/gpaw/software/venv/lib/python3.7/site-packages/ase (version 3.16.2)
numpy:  /app/gpaw/software/venv/lib/python3.7/site-packages/numpy (version 1.15.0)
scipy:  /app/gpaw/software/venv/lib/python3.7/site-packages/scipy (version 1.1.0)
units:  Angstrom and eV
cores:  1

Input parameters:
  gpts: [72 64 72]
  maxiter: 150
  mixer: {backend: pulay,
          beta: None,
          method: separate,
          nmaxold: None,
          weight: None}
  xc: PBE

System changes: positions, numbers, cell, pbc, initial_charges, initial_magmoms 

Initialize ...

Hf-setup:
  name: Hafnium
  id: d03a45b6fa1dd7f07e443d1513edf499
  Z: 72
  valence: 12
  core: 60
  charge: 0.0
  file: /app/gpaw/datasets/Hf.PBE
  cutoffs: 1.30(comp), 2.36(filt), 4.02(core), lmax=2
  valence states:
                energy  radius
    5s(2.00)   -66.831   1.397
    6s(2.00)    -5.097   1.397
    5p(6.00)   -35.599   1.307
    6p(0.00)    -1.401   1.307
    5d(2.00)    -2.699   1.334
    *d          24.513   1.334

  Using partial waves for Hf as LCAO basis

N-setup:
  name: Nitrogen
  id: 45c8c9c739e7b131496b9fd2deb94bff
  Z: 7
  valence: 5
  core: 2
  charge: 0.0
  file: /app/gpaw/datasets/N.PBE
  cutoffs: 0.58(comp), 1.11(filt), 0.96(core), lmax=2
  valence states:
                energy  radius
    2s(2.00)   -18.583   0.603
    2p(3.00)    -7.089   0.529
    *s           8.629   0.603
    *p          20.123   0.529
    *d           0.000   0.577

  Using partial waves for N as LCAO basis

C-setup:
  name: Carbon
  id: 2f012631b351e3618121587a96c50fca
  Z: 6
  valence: 4
  core: 2
  charge: 0.0
  file: /app/gpaw/datasets/C.PBE
  cutoffs: 0.64(comp), 1.14(filt), 1.14(core), lmax=2
  valence states:
                energy  radius
    2s(2.00)   -13.751   0.635
    2p(2.00)    -5.285   0.635
    *s          13.461   0.635
    *p          21.927   0.635
    *d           0.000   0.635

  Using partial waves for C as LCAO basis

Reference energy: -412395.464894

Spin-paired calculation

Occupation numbers:
  Fermi-Dirac: width=0.0000 eV

Convergence criteria:
  Maximum total energy change: 0.0005 eV / electron
  Maximum integral of absolute density change: 0.0001 electrons
  Maximum integral of absolute eigenstate change: 4e-08 eV^2
  Maximum number of iterations: 150

Symmetries present (total): 1

  ( 1  0  0)
  ( 0  1  0)
  ( 0  0  1)

1 k-point (Gamma)
1 k-point in the irreducible part of the Brillouin zone
       k-points in crystal coordinates                weights
   0:     0.00000000    0.00000000    0.00000000          1/1

Wave functions: Uniform real-space grid
  Kinetic energy operator: 6*3+1=19 point O(h^6) finite-difference Laplacian
  ScaLapack parameters: grid=1x1, blocksize=None 

Eigensolver
   Davidson(niter=1, smin=None, normalize=True) 

Densities:
  Coarse grid: 72*64*72 grid
  Fine grid: 144*128*144 grid
  Total Charge: 0.000000 

Density mixing:
  Method: separate
  Backend: pulay
  Linear mixing parameter: 0.25
  Mixing with 3 old densities
  No damping of long wave oscillations 

Hamiltonian:
  XC and Coulomb potentials evaluated on a 144*128*144 grid
  Using the PBE Exchange-Correlation functional
  Interpolation: tri-quintic (5. degree polynomial)
  Poisson solver: Jacobi solver with 5 multi-grid levels
    Coarsest grid: 9 x 8 x 9 points
    Stencil: 6*3+1=19 point O(h^6) finite-difference Laplacian
    Max iterations: 1000
    Tolerance: 2.000000e-10 

Memory estimate:
  Process memory now: 642.37 MiB
  Calculator: 325.36 MiB
    Density: 113.90 MiB
      Arrays: 64.29 MiB
      Localized functions: 35.07 MiB
      Mixer: 14.54 MiB
    Hamiltonian: 92.51 MiB
      Arrays: 42.05 MiB
      XC: 0.00 MiB
      Poisson: 48.10 MiB
      vbar: 2.35 MiB
    Wavefunctions: 118.96 MiB
      Arrays psit_nG: 50.88 MiB
      Eigensolver: 63.03 MiB
      Projections: 0.01 MiB
      Projectors: 5.04 MiB

Total number of cores used: 1

Number of atoms: 3
Number of atomic orbitals: 21
Number of bands in calculation: 21
Bands to converge: occupied states only
Number of valence electrons: 21

... initialized

Initializing position-dependent things.

Density initialized from atomic densities
Creating initial wave functions:
  21 bands from LCAO basis set

      .--------------------.  
     /|                    |  
    / |                    |  
   /  |                    |  
  /   |                    |  
 *    |                    |  
 |    |                    |  
 |    |     Hf   C         |  
 |    |    N               |  
 |    |                    |  
 |    .--------------------.  
 |   /                    /   
 |  /                    /    
 | /                    /     
 |/                    /      
 *--------------------*       

Positions:
   0 Hf     3.350050    4.891250    4.415000    ( 0.0000,  0.0000,  0.0000)
   1 N      3.350050    3.108750    4.085000    ( 0.0000,  0.0000,  0.0000)
   2 C      5.149950    4.891250    4.085000    ( 0.0000,  0.0000,  0.0000)

Unit cell:
           periodic     x           y           z      points  spacing
  1. axis:    no     8.500000    0.000000    0.000000    72     0.1181
  2. axis:    no     0.000000    8.000000    0.000000    64     0.1250
  3. axis:    no     0.000000    0.000000    8.500000    72     0.1181

  Lengths:   8.500000   8.000000   8.500000
  Angles:   90.000000  90.000000  90.000000

Effective grid spacing dv^(1/3) = 0.1203

                     log10-error:    total        iterations:
           time      wfs    density  energy       fermi  poisson
iter:   1  21:52:38  +2.41   +inf   -18.807263    0      15     
iter:   2  21:52:40  +1.14   +inf   -19.353834    0             
iter:   3  21:52:42  +0.58   +inf   -19.529453    0             
iter:   4  21:52:52  +0.60  -0.70   -16.594160    0      11     
iter:   5  21:53:00  +0.88  -0.77   -15.399345    0      9      
iter:   6  21:53:09  +0.51  -0.97   -14.643382    0      9      
iter:   7  21:53:17  +0.19  -1.18   -14.486625    0      9      
iter:   8  21:53:25  +0.46  -1.48   -14.502275    0      8      
iter:   9  21:53:33  -0.17  -1.59   -14.524019    0      7      
iter:  10  21:53:40  +0.05  -1.30   -14.518500    0      6      
iter:  11  21:53:46  -0.79  -1.69   -14.517391    0      5      
iter:  12  21:53:54  -0.48  -1.89   -14.517304    0      6      
iter:  13  21:54:01  -1.27  -2.14   -14.518433    0      6      
iter:  14  21:54:07  -1.09  -2.57   -14.519266    0      4      
iter:  15  21:54:14  -1.61  -2.57   -14.519768    0      4      
iter:  16  21:54:20  -1.49  -2.55   -14.520067    0      4      
iter:  17  21:54:26  -1.96  -2.73   -14.520371    0      4      
iter:  18  21:54:33  -1.85  -2.86   -14.520541    0      4      
iter:  19  21:54:39  -2.31  -2.88   -14.520652    0      3      
iter:  20  21:54:44  -2.17  -2.76   -14.520704    0      3      
iter:  21  21:54:50  -2.64  -2.92   -14.520755    0      3      
iter:  22  21:54:57  -2.54  -3.08   -14.520822    0      4      
iter:  23  21:55:03  -2.98  -3.22   -14.520862    0      3      
iter:  24  21:55:09  -2.85  -2.97   -14.520862    0      3      
iter:  25  21:55:15  -3.30  -2.99   -14.520720    0      3      
iter:  26  21:55:20  -3.17  -3.41   -14.520823    0      3      
iter:  27  21:55:26  -3.62  -3.55   -14.520887    0      3      
iter:  28  21:55:32  -3.52  -3.81   -14.520832    0      2      
iter:  29  21:55:38  -3.91  -3.62   -14.520846    0      3      
iter:  30  21:55:43  -3.82  -3.91   -14.520762    0      2      
iter:  31  21:55:48  -4.18  -4.15   -14.520768    0      1      
iter:  32  21:55:54  -4.15  -4.24   -14.520871    0      2      
iter:  33  21:55:59  -4.48  -4.73   -14.520845    0      1      
iter:  34  21:56:04  -4.46  -4.63   -14.520828    0      1      
iter:  35  21:56:09  -4.76  -4.72   -14.520823    0      1      
iter:  36  21:56:14  -4.75  -4.76   -14.520867    0      1      
iter:  37  21:56:19  -5.05  -4.84   -14.520867    0      1      
iter:  38  21:56:24  -5.04  -4.85   -14.520893    0      1      
iter:  39  21:56:29  -5.32  -4.97   -14.520811    0      1      
iter:  40  21:56:35  -5.34  -4.93   -14.520819    0      1      
iter:  41  21:56:40  -5.60  -4.96   -14.520820    0      1      
iter:  42  21:56:45  -5.62  -5.00   -14.520866    0      1      
iter:  43  21:56:50  -5.87  -5.10   -14.520783    0      1      
iter:  44  21:56:55  -5.91  -4.96   -14.520842    0      1      
iter:  45  21:57:00  -6.15  -5.12   -14.520801    0      1      
iter:  46  21:57:05  -6.19  -5.25   -14.520824    0      1      
iter:  47  21:57:10  -6.42  -5.33   -14.520798    0      1      
iter:  48  21:57:15  -6.48  -5.58   -14.520811    0      1      
iter:  49  21:57:20  -6.68  -5.43   -14.520793    0      1      
iter:  50  21:57:25  -6.77  -5.69   -14.520792    0      1      
iter:  51  21:57:30  -7.00  -5.29   -14.520796    0      1      
iter:  52  21:57:35  -7.01  -5.55   -14.520794    0      1      
iter:  53  21:57:40  -7.28  -5.69   -14.520798    0      1      
iter:  54  21:57:46  -7.31  -5.89   -14.520797    0      1      
iter:  55  21:57:51  -7.55  -5.80   -14.520794    0      1      

Converged after 55 iterations.

Dipole moment: (-0.922647, 1.209261, 0.377220) |e|*Ang

Energy contributions relative to reference atoms: (reference = -412395.464894)

Kinetic:        +20.792323
Potential:      -17.067185
External:        +0.000000
XC:             -18.086940
Entropy (-ST):   +0.000000
Local:           -0.158993
--------------------------
Free energy:    -14.520794
Extrapolated:   -14.520794

Fermi level: -4.97306

 Band  Eigenvalues  Occupancy
    0    -65.08140    2.00000
    1    -34.41338    2.00000
    2    -34.32496    2.00000
    3    -34.19655    2.00000
    4    -15.77734    2.00000
    5    -12.36070    2.00000
    6     -6.52795    2.00000
    7     -5.55423    2.00000
    8     -5.38371    2.00000
    9     -4.98636    2.00000
   10     -4.97306    1.00000
   11     -3.42603    0.00000
   12     -3.03493    0.00000
   13     -1.29889    0.00000
   14     -0.67596    0.00000
   15      0.47750    0.00000
   16      0.80745    0.00000
   17      1.49015    0.00000
   18      2.17702    0.00000
   19      2.52443    0.00000
   20      3.16821    0.00000

Writing to 3_57799_P1_PBE_zy0_3300.gpw (mode='all')

Timing:                              incl.     excl.
-----------------------------------------------------------
Hamiltonian:                         8.855     0.000   0.0% |
 Atomic:                             0.195     0.001   0.0% |
  XC Correction:                     0.194     0.194   0.1% |
 Calculate atomic Hamiltonians:      0.009     0.009   0.0% |
 Communicate:                        0.000     0.000   0.0% |
 Hartree integrate/restrict:         0.035     0.035   0.0% |
 Initialize Hamiltonian:             0.000     0.000   0.0% |
 Poisson:                            6.425     6.425   2.0% ||
 XC 3D grid:                         2.181     2.181   0.7% |
 vbar:                               0.011     0.011   0.0% |
LCAO initialization:                 0.776     0.527   0.2% |
 LCAO eigensolver:                   0.076     0.000   0.0% |
  Calculate projections:             0.000     0.000   0.0% |
  DenseAtomicCorrection:             0.000     0.000   0.0% |
  Distribute overlap matrix:         0.000     0.000   0.0% |
  Orbital Layouts:                   0.000     0.000   0.0% |
  Potential matrix:                  0.075     0.075   0.0% |
 LCAO to grid:                       0.170     0.170   0.1% |
 Set positions (LCAO WFS):           0.004     0.000   0.0% |
  Basic WFS set positions:           0.000     0.000   0.0% |
  Basis functions set positions:     0.000     0.000   0.0% |
  TCI: Calculate S, T, P:            0.003     0.003   0.0% |
SCF-cycle:                         314.711     0.022   0.0% |
 Davidson:                         116.091    21.037   6.5% |--|
  Apply hamiltonian:                 8.878     8.878   2.7% ||
  Subspace diag:                    33.267     0.005   0.0% |
   calc_h_matrix:                   16.444     7.542   2.3% ||
    Apply hamiltonian:               8.902     8.902   2.7% ||
   diagonalize:                      0.012     0.012   0.0% |
   rotate_psi:                      16.805    16.805   5.2% |-|
  calc. matrices:                   36.152    27.286   8.4% |--|
   Apply hamiltonian:                8.866     8.866   2.7% ||
  diagonalize:                       0.044     0.044   0.0% |
  rotate_psi:                       16.714    16.714   5.1% |-|
 Density:                            4.204     0.001   0.0% |
  Atomic density matrices:           0.036     0.036   0.0% |
  Mix:                               3.026     3.026   0.9% |
  Multipole moments:                 0.009     0.009   0.0% |
  Pseudo density:                    1.131     1.130   0.3% |
   Symmetrize density:               0.001     0.001   0.0% |
 Hamiltonian:                      194.195     0.006   0.0% |
  Atomic:                           10.252     0.045   0.0% |
   XC Correction:                   10.207    10.207   3.1% ||
  Calculate atomic Hamiltonians:     0.452     0.452   0.1% |
  Communicate:                       0.000     0.000   0.0% |
  Hartree integrate/restrict:        1.773     1.773   0.5% |
  Poisson:                          67.542    67.542  20.8% |-------|
  XC 3D grid:                      113.840   113.840  35.0% |-------------|
  vbar:                              0.329     0.329   0.1% |
 Orthonormalize:                     0.199     0.000   0.0% |
  calc_s_matrix:                     0.073     0.073   0.0% |
  inverse-cholesky:                  0.000     0.000   0.0% |
  projections:                       0.028     0.028   0.0% |
  rotate_psi_s:                      0.098     0.098   0.0% |
Set symmetry:                        0.001     0.001   0.0% |
Other:                               1.126     1.126   0.3% |
-----------------------------------------------------------
Total:                                       325.468 100.0%

Memory usage: 642.37 MiB
Date: Mon Aug 20 21:57:51 2018
