
  ___ ___ ___ _ _ _  
 |   |   |_  | | | | 
 | | | | | . | | | | 
 |__ |  _|___|_____|  1.4.0
 |___|_|             

User:   ???@3fe09ff0504a
Date:   Mon Aug 20 20:25:34 2018
Arch:   x86_64
Pid:    1882
Python: 3.7.0
gpaw:   /app/gpaw/software/venv/lib/python3.7/site-packages/gpaw
_gpaw:  /app/gpaw/software/venv/lib/python3.7/site-packages/
        _gpaw.cpython-37m-x86_64-linux-gnu.so
ase:    /app/gpaw/software/venv/lib/python3.7/site-packages/ase (version 3.16.2)
numpy:  /app/gpaw/software/venv/lib/python3.7/site-packages/numpy (version 1.15.0)
scipy:  /app/gpaw/software/venv/lib/python3.7/site-packages/scipy (version 1.1.0)
units:  Angstrom and eV
cores:  1

Input parameters:
  gpts: [72 64 72]
  maxiter: 150
  mixer: {backend: pulay,
          beta: None,
          method: separate,
          nmaxold: None,
          weight: None}
  xc: PBE

System changes: positions, numbers, cell, pbc, initial_charges, initial_magmoms 

Initialize ...

Hf-setup:
  name: Hafnium
  id: d03a45b6fa1dd7f07e443d1513edf499
  Z: 72
  valence: 12
  core: 60
  charge: 0.0
  file: /app/gpaw/datasets/Hf.PBE
  cutoffs: 1.30(comp), 2.36(filt), 4.02(core), lmax=2
  valence states:
                energy  radius
    5s(2.00)   -66.831   1.397
    6s(2.00)    -5.097   1.397
    5p(6.00)   -35.599   1.307
    6p(0.00)    -1.401   1.307
    5d(2.00)    -2.699   1.334
    *d          24.513   1.334

  Using partial waves for Hf as LCAO basis

N-setup:
  name: Nitrogen
  id: 45c8c9c739e7b131496b9fd2deb94bff
  Z: 7
  valence: 5
  core: 2
  charge: 0.0
  file: /app/gpaw/datasets/N.PBE
  cutoffs: 0.58(comp), 1.11(filt), 0.96(core), lmax=2
  valence states:
                energy  radius
    2s(2.00)   -18.583   0.603
    2p(3.00)    -7.089   0.529
    *s           8.629   0.603
    *p          20.123   0.529
    *d           0.000   0.577

  Using partial waves for N as LCAO basis

C-setup:
  name: Carbon
  id: 2f012631b351e3618121587a96c50fca
  Z: 6
  valence: 4
  core: 2
  charge: 0.0
  file: /app/gpaw/datasets/C.PBE
  cutoffs: 0.64(comp), 1.14(filt), 1.14(core), lmax=2
  valence states:
                energy  radius
    2s(2.00)   -13.751   0.635
    2p(2.00)    -5.285   0.635
    *s          13.461   0.635
    *p          21.927   0.635
    *d           0.000   0.635

  Using partial waves for C as LCAO basis

Reference energy: -412395.464894

Spin-paired calculation

Occupation numbers:
  Fermi-Dirac: width=0.0000 eV

Convergence criteria:
  Maximum total energy change: 0.0005 eV / electron
  Maximum integral of absolute density change: 0.0001 electrons
  Maximum integral of absolute eigenstate change: 4e-08 eV^2
  Maximum number of iterations: 150

Symmetries present (total): 1

  ( 1  0  0)
  ( 0  1  0)
  ( 0  0  1)

1 k-point (Gamma)
1 k-point in the irreducible part of the Brillouin zone
       k-points in crystal coordinates                weights
   0:     0.00000000    0.00000000    0.00000000          1/1

Wave functions: Uniform real-space grid
  Kinetic energy operator: 6*3+1=19 point O(h^6) finite-difference Laplacian
  ScaLapack parameters: grid=1x1, blocksize=None 

Eigensolver
   Davidson(niter=1, smin=None, normalize=True) 

Densities:
  Coarse grid: 72*64*72 grid
  Fine grid: 144*128*144 grid
  Total Charge: 0.000000 

Density mixing:
  Method: separate
  Backend: pulay
  Linear mixing parameter: 0.25
  Mixing with 3 old densities
  No damping of long wave oscillations 

Hamiltonian:
  XC and Coulomb potentials evaluated on a 144*128*144 grid
  Using the PBE Exchange-Correlation functional
  Interpolation: tri-quintic (5. degree polynomial)
  Poisson solver: Jacobi solver with 5 multi-grid levels
    Coarsest grid: 9 x 8 x 9 points
    Stencil: 6*3+1=19 point O(h^6) finite-difference Laplacian
    Max iterations: 1000
    Tolerance: 2.000000e-10 

Memory estimate:
  Process memory now: 616.79 MiB
  Calculator: 325.36 MiB
    Density: 113.90 MiB
      Arrays: 64.29 MiB
      Localized functions: 35.07 MiB
      Mixer: 14.54 MiB
    Hamiltonian: 92.51 MiB
      Arrays: 42.05 MiB
      XC: 0.00 MiB
      Poisson: 48.10 MiB
      vbar: 2.35 MiB
    Wavefunctions: 118.96 MiB
      Arrays psit_nG: 50.88 MiB
      Eigensolver: 63.03 MiB
      Projections: 0.01 MiB
      Projectors: 5.04 MiB

Total number of cores used: 1

Number of atoms: 3
Number of atomic orbitals: 21
Number of bands in calculation: 21
Bands to converge: occupied states only
Number of valence electrons: 21

... initialized

Initializing position-dependent things.

Density initialized from atomic densities
Creating initial wave functions:
  21 bands from LCAO basis set

      .--------------------.  
     /|                    |  
    / |                    |  
   /  |                    |  
  /   |                    |  
 *    |                    |  
 |    |                    |  
 |    |     Hf   C         |  
 |    |    N               |  
 |    |                    |  
 |    .--------------------.  
 |   /                    /   
 |  /                    /    
 | /                    /     
 |/                    /      
 *--------------------*       

Positions:
   0 Hf     3.350050    4.891250    4.335000    ( 0.0000,  0.0000,  0.0000)
   1 N      3.350050    3.108750    4.165000    ( 0.0000,  0.0000,  0.0000)
   2 C      5.149950    4.891250    4.165000    ( 0.0000,  0.0000,  0.0000)

Unit cell:
           periodic     x           y           z      points  spacing
  1. axis:    no     8.500000    0.000000    0.000000    72     0.1181
  2. axis:    no     0.000000    8.000000    0.000000    64     0.1250
  3. axis:    no     0.000000    0.000000    8.500000    72     0.1181

  Lengths:   8.500000   8.000000   8.500000
  Angles:   90.000000  90.000000  90.000000

Effective grid spacing dv^(1/3) = 0.1203

                     log10-error:    total        iterations:
           time      wfs    density  energy       fermi  poisson
iter:   1  20:25:47  +2.41   +inf   -18.634280    0      15     
iter:   2  20:25:49  +1.16   +inf   -19.215603    0             
iter:   3  20:25:52  +0.60   +inf   -19.402907    0             
iter:   4  20:26:01  +0.61  -0.70   -16.437354    0      11     
iter:   5  20:26:09  +0.85  -0.77   -15.288959    0      9      
iter:   6  20:26:18  +0.52  -0.97   -14.514834    0      9      
iter:   7  20:26:26  +0.21  -1.20   -14.375239    0      9      
iter:   8  20:26:34  +0.51  -1.50   -14.397506    0      7      
iter:   9  20:26:42  -0.23  -1.68   -14.402552    0      7      
iter:  10  20:26:48  +0.12  -1.97   -14.406635    0      5      
iter:  11  20:26:55  -0.78  -2.22   -14.408600    0      5      
iter:  12  20:27:02  -0.63  -2.42   -14.410154    0      4      
iter:  13  20:27:08  -1.23  -2.61   -14.411151    0      4      
iter:  14  20:27:15  -1.11  -2.66   -14.411798    0      5      
iter:  15  20:27:21  -1.69  -3.12   -14.411582    0      3      
iter:  16  20:27:27  -1.48  -3.19   -14.412230    0      3      
iter:  17  20:27:33  -2.11  -3.32   -14.412495    0      3      
iter:  18  20:27:39  -1.84  -3.28   -14.412711    0      3      
iter:  19  20:27:44  -2.46  -3.59   -14.412784    0      3      
iter:  20  20:27:50  -2.22  -3.71   -14.413002    0      1      
iter:  21  20:27:55  -2.77  -3.66   -14.412460    0      2      
iter:  22  20:28:01  -2.51  -3.44   -14.412912    0      3      
iter:  23  20:28:07  -3.12  -3.60   -14.412899    0      3      
iter:  24  20:28:13  -2.93  -3.73   -14.413063    0      3      
iter:  25  20:28:18  -3.43  -4.15   -14.412647    0      2      
iter:  26  20:28:24  -3.25  -4.20   -14.412876    0      2      
iter:  27  20:28:29  -3.81  -4.34   -14.412730    0      1      
iter:  28  20:28:35  -3.57  -4.32   -14.412839    0      2      
iter:  29  20:28:40  -4.16  -4.42   -14.412885    0      1      
iter:  30  20:28:45  -3.92  -4.55   -14.412903    0      2      
iter:  31  20:28:50  -4.48  -4.75   -14.412654    0      1      
iter:  32  20:28:55  -4.24  -4.76   -14.412838    0      1      
iter:  33  20:29:00  -4.84  -5.07   -14.412833    0      1      
iter:  34  20:29:06  -4.59  -5.13   -14.412843    0      1      
iter:  35  20:29:11  -5.15  -5.29   -14.412807    0      1      
iter:  36  20:29:16  -4.93  -5.14   -14.412834    0      1      
iter:  37  20:29:21  -5.45  -5.27   -14.412827    0      1      
iter:  38  20:29:26  -5.27  -5.33   -14.412870    0      1      
iter:  39  20:29:31  -5.73  -5.50   -14.412781    0      1      
iter:  40  20:29:36  -5.59  -5.47   -14.412824    0      1      
iter:  41  20:29:41  -6.06  -5.92   -14.412803    0      1      
iter:  42  20:29:46  -5.91  -6.05   -14.412802    0      1      
iter:  43  20:29:51  -6.36  -6.22   -14.412795    0      1      
iter:  44  20:29:56  -6.22  -6.11   -14.412790    0      1      
iter:  45  20:30:01  -6.66  -5.85   -14.412796    0      1      
iter:  46  20:30:06  -6.52  -5.88   -14.412795    0      1      
iter:  47  20:30:11  -6.95  -5.85   -14.412790    0      1      
iter:  48  20:30:17  -6.82  -5.69   -14.412794    0      1      
iter:  49  20:30:22  -7.23  -5.74   -14.412798    0      1      
iter:  50  20:30:27  -7.14  -5.86   -14.412808    0      1      
iter:  51  20:30:32  -7.49  -6.22   -14.412798    0      1      

Converged after 51 iterations.

Dipole moment: (-0.928052, 1.206065, 0.194927) |e|*Ang

Energy contributions relative to reference atoms: (reference = -412395.464894)

Kinetic:        +24.885190
Potential:      -20.347284
External:        +0.000000
XC:             -18.811197
Entropy (-ST):   +0.000000
Local:           -0.139508
--------------------------
Free energy:    -14.412798
Extrapolated:   -14.412798

Fermi level: -4.91574

 Band  Eigenvalues  Occupancy
    0    -64.96874    2.00000
    1    -34.34950    2.00000
    2    -34.21569    2.00000
    3    -34.16047    2.00000
    4    -15.78511    2.00000
    5    -12.32606    2.00000
    6     -6.61624    2.00000
    7     -5.61545    2.00000
    8     -5.41822    2.00000
    9     -5.05466    2.00000
   10     -4.91574    1.00000
   11     -3.47089    0.00000
   12     -2.99565    0.00000
   13     -1.25346    0.00000
   14     -0.58153    0.00000
   15      0.64892    0.00000
   16      0.93305    0.00000
   17      1.64542    0.00000
   18      2.27480    0.00000
   19      2.61540    0.00000
   20      3.17521    0.00000

Writing to 3_57799_P1_PBE_zy0_1700.gpw (mode='all')

Timing:                              incl.     excl.
-----------------------------------------------------------
Hamiltonian:                         8.907     0.000   0.0% |
 Atomic:                             0.197     0.001   0.0% |
  XC Correction:                     0.196     0.196   0.1% |
 Calculate atomic Hamiltonians:      0.009     0.009   0.0% |
 Communicate:                        0.000     0.000   0.0% |
 Hartree integrate/restrict:         0.035     0.035   0.0% |
 Initialize Hamiltonian:             0.000     0.000   0.0% |
 Poisson:                            6.479     6.479   2.2% ||
 XC 3D grid:                         2.177     2.177   0.7% |
 vbar:                               0.011     0.011   0.0% |
LCAO initialization:                 0.817     0.566   0.2% |
 LCAO eigensolver:                   0.077     0.000   0.0% |
  Calculate projections:             0.000     0.000   0.0% |
  DenseAtomicCorrection:             0.000     0.000   0.0% |
  Distribute overlap matrix:         0.000     0.000   0.0% |
  Orbital Layouts:                   0.000     0.000   0.0% |
  Potential matrix:                  0.076     0.076   0.0% |
 LCAO to grid:                       0.170     0.170   0.1% |
 Set positions (LCAO WFS):           0.004     0.000   0.0% |
  Basic WFS set positions:           0.000     0.000   0.0% |
  Basis functions set positions:     0.000     0.000   0.0% |
  TCI: Calculate S, T, P:            0.003     0.003   0.0% |
SCF-cycle:                         286.793     0.020   0.0% |
 Davidson:                         107.939    19.576   6.6% |--|
  Apply hamiltonian:                 8.246     8.246   2.8% ||
  Subspace diag:                    30.916     0.005   0.0% |
   calc_h_matrix:                   15.206     6.972   2.3% ||
    Apply hamiltonian:               8.233     8.233   2.8% ||
   diagonalize:                      0.011     0.011   0.0% |
   rotate_psi:                      15.694    15.694   5.3% |-|
  calc. matrices:                   33.571    25.338   8.5% |--|
   Apply hamiltonian:                8.233     8.233   2.8% ||
  diagonalize:                       0.041     0.041   0.0% |
  rotate_psi:                       15.588    15.588   5.2% |-|
 Density:                            3.886     0.001   0.0% |
  Atomic density matrices:           0.033     0.033   0.0% |
  Mix:                               2.796     2.796   0.9% |
  Multipole moments:                 0.009     0.009   0.0% |
  Pseudo density:                    1.046     1.046   0.4% |
   Symmetrize density:               0.001     0.001   0.0% |
 Hamiltonian:                      174.747     0.005   0.0% |
  Atomic:                            9.465     0.042   0.0% |
   XC Correction:                    9.424     9.424   3.2% ||
  Calculate atomic Hamiltonians:     0.419     0.419   0.1% |
  Communicate:                       0.000     0.000   0.0% |
  Hartree integrate/restrict:        1.649     1.649   0.6% |
  Poisson:                          57.677    57.677  19.4% |-------|
  XC 3D grid:                      105.225   105.225  35.4% |-------------|
  vbar:                              0.306     0.306   0.1% |
 Orthonormalize:                     0.202     0.000   0.0% |
  calc_s_matrix:                     0.073     0.073   0.0% |
  inverse-cholesky:                  0.000     0.000   0.0% |
  projections:                       0.028     0.028   0.0% |
  rotate_psi_s:                      0.100     0.100   0.0% |
Set symmetry:                        0.001     0.001   0.0% |
Other:                               1.132     1.132   0.4% |
-----------------------------------------------------------
Total:                                       297.651 100.0%

Memory usage: 619.56 MiB
Date: Mon Aug 20 20:30:32 2018
