
  ___ ___ ___ _ _ _  
 |   |   |_  | | | | 
 | | | | | . | | | | 
 |__ |  _|___|_____|  1.4.0
 |___|_|             

User:   ???@3fe09ff0504a
Date:   Mon Aug 20 20:30:32 2018
Arch:   x86_64
Pid:    1882
Python: 3.7.0
gpaw:   /app/gpaw/software/venv/lib/python3.7/site-packages/gpaw
_gpaw:  /app/gpaw/software/venv/lib/python3.7/site-packages/
        _gpaw.cpython-37m-x86_64-linux-gnu.so
ase:    /app/gpaw/software/venv/lib/python3.7/site-packages/ase (version 3.16.2)
numpy:  /app/gpaw/software/venv/lib/python3.7/site-packages/numpy (version 1.15.0)
scipy:  /app/gpaw/software/venv/lib/python3.7/site-packages/scipy (version 1.1.0)
units:  Angstrom and eV
cores:  1

Input parameters:
  gpts: [72 64 72]
  maxiter: 150
  mixer: {backend: pulay,
          beta: None,
          method: separate,
          nmaxold: None,
          weight: None}
  xc: PBE

System changes: positions, numbers, cell, pbc, initial_charges, initial_magmoms 

Initialize ...

Hf-setup:
  name: Hafnium
  id: d03a45b6fa1dd7f07e443d1513edf499
  Z: 72
  valence: 12
  core: 60
  charge: 0.0
  file: /app/gpaw/datasets/Hf.PBE
  cutoffs: 1.30(comp), 2.36(filt), 4.02(core), lmax=2
  valence states:
                energy  radius
    5s(2.00)   -66.831   1.397
    6s(2.00)    -5.097   1.397
    5p(6.00)   -35.599   1.307
    6p(0.00)    -1.401   1.307
    5d(2.00)    -2.699   1.334
    *d          24.513   1.334

  Using partial waves for Hf as LCAO basis

N-setup:
  name: Nitrogen
  id: 45c8c9c739e7b131496b9fd2deb94bff
  Z: 7
  valence: 5
  core: 2
  charge: 0.0
  file: /app/gpaw/datasets/N.PBE
  cutoffs: 0.58(comp), 1.11(filt), 0.96(core), lmax=2
  valence states:
                energy  radius
    2s(2.00)   -18.583   0.603
    2p(3.00)    -7.089   0.529
    *s           8.629   0.603
    *p          20.123   0.529
    *d           0.000   0.577

  Using partial waves for N as LCAO basis

C-setup:
  name: Carbon
  id: 2f012631b351e3618121587a96c50fca
  Z: 6
  valence: 4
  core: 2
  charge: 0.0
  file: /app/gpaw/datasets/C.PBE
  cutoffs: 0.64(comp), 1.14(filt), 1.14(core), lmax=2
  valence states:
                energy  radius
    2s(2.00)   -13.751   0.635
    2p(2.00)    -5.285   0.635
    *s          13.461   0.635
    *p          21.927   0.635
    *d           0.000   0.635

  Using partial waves for C as LCAO basis

Reference energy: -412395.464894

Spin-paired calculation

Occupation numbers:
  Fermi-Dirac: width=0.0000 eV

Convergence criteria:
  Maximum total energy change: 0.0005 eV / electron
  Maximum integral of absolute density change: 0.0001 electrons
  Maximum integral of absolute eigenstate change: 4e-08 eV^2
  Maximum number of iterations: 150

Symmetries present (total): 1

  ( 1  0  0)
  ( 0  1  0)
  ( 0  0  1)

1 k-point (Gamma)
1 k-point in the irreducible part of the Brillouin zone
       k-points in crystal coordinates                weights
   0:     0.00000000    0.00000000    0.00000000          1/1

Wave functions: Uniform real-space grid
  Kinetic energy operator: 6*3+1=19 point O(h^6) finite-difference Laplacian
  ScaLapack parameters: grid=1x1, blocksize=None 

Eigensolver
   Davidson(niter=1, smin=None, normalize=True) 

Densities:
  Coarse grid: 72*64*72 grid
  Fine grid: 144*128*144 grid
  Total Charge: 0.000000 

Density mixing:
  Method: separate
  Backend: pulay
  Linear mixing parameter: 0.25
  Mixing with 3 old densities
  No damping of long wave oscillations 

Hamiltonian:
  XC and Coulomb potentials evaluated on a 144*128*144 grid
  Using the PBE Exchange-Correlation functional
  Interpolation: tri-quintic (5. degree polynomial)
  Poisson solver: Jacobi solver with 5 multi-grid levels
    Coarsest grid: 9 x 8 x 9 points
    Stencil: 6*3+1=19 point O(h^6) finite-difference Laplacian
    Max iterations: 1000
    Tolerance: 2.000000e-10 

Memory estimate:
  Process memory now: 619.56 MiB
  Calculator: 325.36 MiB
    Density: 113.90 MiB
      Arrays: 64.29 MiB
      Localized functions: 35.07 MiB
      Mixer: 14.54 MiB
    Hamiltonian: 92.51 MiB
      Arrays: 42.05 MiB
      XC: 0.00 MiB
      Poisson: 48.10 MiB
      vbar: 2.35 MiB
    Wavefunctions: 118.96 MiB
      Arrays psit_nG: 50.88 MiB
      Eigensolver: 63.03 MiB
      Projections: 0.01 MiB
      Projectors: 5.04 MiB

Total number of cores used: 1

Number of atoms: 3
Number of atomic orbitals: 21
Number of bands in calculation: 21
Bands to converge: occupied states only
Number of valence electrons: 21

... initialized

Initializing position-dependent things.

Density initialized from atomic densities
Creating initial wave functions:
  21 bands from LCAO basis set

      .--------------------.  
     /|                    |  
    / |                    |  
   /  |                    |  
  /   |                    |  
 *    |                    |  
 |    |                    |  
 |    |     Hf   C         |  
 |    |    N               |  
 |    |                    |  
 |    .--------------------.  
 |   /                    /   
 |  /                    /    
 | /                    /     
 |/                    /      
 *--------------------*       

Positions:
   0 Hf     3.350050    4.891250    4.340000    ( 0.0000,  0.0000,  0.0000)
   1 N      3.350050    3.108750    4.160000    ( 0.0000,  0.0000,  0.0000)
   2 C      5.149950    4.891250    4.160000    ( 0.0000,  0.0000,  0.0000)

Unit cell:
           periodic     x           y           z      points  spacing
  1. axis:    no     8.500000    0.000000    0.000000    72     0.1181
  2. axis:    no     0.000000    8.000000    0.000000    64     0.1250
  3. axis:    no     0.000000    0.000000    8.500000    72     0.1181

  Lengths:   8.500000   8.000000   8.500000
  Angles:   90.000000  90.000000  90.000000

Effective grid spacing dv^(1/3) = 0.1203

                     log10-error:    total        iterations:
           time      wfs    density  energy       fermi  poisson
iter:   1  20:30:45  +2.41   +inf   -18.642874    0      15     
iter:   2  20:30:47  +1.16   +inf   -19.222632    0             
iter:   3  20:30:49  +0.60   +inf   -19.409338    0             
iter:   4  20:31:00  +0.61  -0.70   -16.445110    0      11     
iter:   5  20:31:09  +0.85  -0.77   -15.294860    0      9      
iter:   6  20:31:18  +0.52  -0.97   -14.521528    0      9      
iter:   7  20:31:26  +0.21  -1.20   -14.381132    0      9      
iter:   8  20:31:34  +0.50  -1.50   -14.403108    0      7      
iter:   9  20:31:42  -0.23  -1.68   -14.408167    0      7      
iter:  10  20:31:49  +0.11  -1.97   -14.412206    0      5      
iter:  11  20:31:55  -0.78  -2.22   -14.414181    0      5      
iter:  12  20:32:02  -0.63  -2.42   -14.415724    0      4      
iter:  13  20:32:08  -1.23  -2.61   -14.416713    0      4      
iter:  14  20:32:15  -1.11  -2.67   -14.417354    0      5      
iter:  15  20:32:21  -1.69  -3.12   -14.417154    0      3      
iter:  16  20:32:28  -1.48  -3.19   -14.417802    0      3      
iter:  17  20:32:35  -2.10  -3.34   -14.418057    0      3      
iter:  18  20:32:41  -1.84  -3.29   -14.418264    0      3      
iter:  19  20:32:48  -2.46  -3.61   -14.418325    0      3      
iter:  20  20:32:53  -2.22  -3.69   -14.418318    0      1      
iter:  21  20:32:59  -2.77  -3.63   -14.418338    0      2      
iter:  22  20:33:05  -2.54  -3.53   -14.418236    0      1      
iter:  23  20:33:11  -3.07  -3.47   -14.418413    0      3      
iter:  24  20:33:17  -2.89  -3.53   -14.418256    0      2      
iter:  25  20:33:24  -3.34  -3.45   -14.418401    0      3      
iter:  26  20:33:30  -3.23  -3.48   -14.418508    0      3      
iter:  27  20:33:37  -3.72  -3.64   -14.418568    0      3      
iter:  28  20:33:43  -3.61  -3.78   -14.418496    0      2      
iter:  29  20:33:50  -4.01  -4.06   -14.418523    0      2      
iter:  30  20:33:57  -3.93  -4.20   -14.418440    0      2      
iter:  31  20:34:03  -4.30  -4.39   -14.418359    0      2      
iter:  32  20:34:09  -4.26  -4.63   -14.418185    0      1      
iter:  33  20:34:15  -4.60  -4.83   -14.418299    0      1      
iter:  34  20:34:21  -4.59  -4.90   -14.418276    0      1      
iter:  35  20:34:27  -4.88  -5.02   -14.418309    0      1      
iter:  36  20:34:33  -4.88  -5.07   -14.418357    0      1      
iter:  37  20:34:39  -5.17  -5.07   -14.418359    0      1      
iter:  38  20:34:45  -5.16  -5.13   -14.418378    0      1      
iter:  39  20:34:51  -5.45  -5.59   -14.418358    0      1      
iter:  40  20:34:57  -5.45  -5.48   -14.418357    0      1      
iter:  41  20:35:03  -5.73  -5.48   -14.418352    0      1      
iter:  42  20:35:09  -5.72  -5.27   -14.418357    0      1      
iter:  43  20:35:15  -6.00  -5.53   -14.418356    0      1      
iter:  44  20:35:21  -6.00  -5.43   -14.418341    0      1      
iter:  45  20:35:27  -6.27  -5.23   -14.418380    0      1      
iter:  46  20:35:33  -6.24  -5.58   -14.418371    0      1      
iter:  47  20:35:39  -6.56  -5.75   -14.418375    0      1      
iter:  48  20:35:45  -6.51  -6.05   -14.418359    0      1      
iter:  49  20:35:51  -6.85  -6.12   -14.418359    0      1      
iter:  50  20:35:57  -6.80  -6.32   -14.418354    0      1      
iter:  51  20:36:02  -7.12  -6.63   -14.418353    0      1      
iter:  52  20:36:08  -7.08  -6.48   -14.418352    0      1      
iter:  53  20:36:14  -7.39  -6.30   -14.418351    0      1      
iter:  54  20:36:20  -7.35  -6.19   -14.418351    0      1      
iter:  55  20:36:26  -7.65  -6.13   -14.418352    0      1      

Converged after 55 iterations.

Dipole moment: (-0.927844, 1.206261, 0.206377) |e|*Ang

Energy contributions relative to reference atoms: (reference = -412395.464894)

Kinetic:        +24.701191
Potential:      -20.200076
External:        +0.000000
XC:             -18.779015
Entropy (-ST):   +0.000000
Local:           -0.140452
--------------------------
Free energy:    -14.418352
Extrapolated:   -14.418352

Fermi level: -4.91824

 Band  Eigenvalues  Occupancy
    0    -64.97358    2.00000
    1    -34.35217    2.00000
    2    -34.22046    2.00000
    3    -34.16177    2.00000
    4    -15.78483    2.00000
    5    -12.32761    2.00000
    6     -6.61225    2.00000
    7     -5.61260    2.00000
    8     -5.41661    2.00000
    9     -5.05160    2.00000
   10     -4.91824    1.00000
   11     -3.46892    0.00000
   12     -2.99736    0.00000
   13     -1.25542    0.00000
   14     -0.58570    0.00000
   15      0.64122    0.00000
   16      0.92754    0.00000
   17      1.63905    0.00000
   18      2.27051    0.00000
   19      2.61012    0.00000
   20      3.17495    0.00000

Writing to 3_57799_P1_PBE_zy0_1800.gpw (mode='all')

Timing:                              incl.     excl.
-----------------------------------------------------------
Hamiltonian:                         8.887     0.000   0.0% |
 Atomic:                             0.196     0.001   0.0% |
  XC Correction:                     0.196     0.196   0.1% |
 Calculate atomic Hamiltonians:      0.009     0.009   0.0% |
 Communicate:                        0.000     0.000   0.0% |
 Hartree integrate/restrict:         0.035     0.035   0.0% |
 Initialize Hamiltonian:             0.000     0.000   0.0% |
 Poisson:                            6.462     6.462   1.8% ||
 XC 3D grid:                         2.174     2.174   0.6% |
 vbar:                               0.011     0.011   0.0% |
LCAO initialization:                 0.804     0.555   0.2% |
 LCAO eigensolver:                   0.075     0.000   0.0% |
  Calculate projections:             0.000     0.000   0.0% |
  DenseAtomicCorrection:             0.000     0.000   0.0% |
  Distribute overlap matrix:         0.000     0.000   0.0% |
  Orbital Layouts:                   0.000     0.000   0.0% |
  Potential matrix:                  0.075     0.075   0.0% |
 LCAO to grid:                       0.170     0.170   0.0% |
 Set positions (LCAO WFS):           0.004     0.000   0.0% |
  Basic WFS set positions:           0.000     0.000   0.0% |
  Basis functions set positions:     0.000     0.000   0.0% |
  TCI: Calculate S, T, P:            0.003     0.003   0.0% |
SCF-cycle:                         343.739     0.023   0.0% |
 Davidson:                         142.491    23.528   6.6% |--|
  Apply hamiltonian:                 9.747     9.747   2.7% ||
  Subspace diag:                    42.211     0.006   0.0% |
   calc_h_matrix:                   21.094    11.319   3.2% ||
    Apply hamiltonian:               9.775     9.775   2.8% ||
   diagonalize:                      0.013     0.013   0.0% |
   rotate_psi:                      21.098    21.098   6.0% |-|
  calc. matrices:                   45.792    36.026  10.2% |---|
   Apply hamiltonian:                9.767     9.767   2.8% ||
  diagonalize:                       0.046     0.046   0.0% |
  rotate_psi:                       21.167    21.167   6.0% |-|
 Density:                            4.834     0.001   0.0% |
  Atomic density matrices:           0.038     0.038   0.0% |
  Mix:                               3.373     3.373   1.0% |
  Multipole moments:                 0.010     0.010   0.0% |
  Pseudo density:                    1.412     1.411   0.4% |
   Symmetrize density:               0.001     0.001   0.0% |
 Hamiltonian:                      196.190     0.006   0.0% |
  Atomic:                           10.717     0.049   0.0% |
   XC Correction:                   10.668    10.668   3.0% ||
  Calculate atomic Hamiltonians:     0.469     0.469   0.1% |
  Communicate:                       0.000     0.000   0.0% |
  Hartree integrate/restrict:        2.075     2.075   0.6% |
  Poisson:                          63.644    63.644  17.9% |------|
  XC 3D grid:                      118.827   118.827  33.5% |------------|
  vbar:                              0.452     0.452   0.1% |
 Orthonormalize:                     0.202     0.000   0.0% |
  calc_s_matrix:                     0.073     0.073   0.0% |
  inverse-cholesky:                  0.000     0.000   0.0% |
  projections:                       0.029     0.029   0.0% |
  rotate_psi_s:                      0.100     0.100   0.0% |
Set symmetry:                        0.001     0.001   0.0% |
Other:                               1.155     1.155   0.3% |
-----------------------------------------------------------
Total:                                       354.586 100.0%

Memory usage: 619.85 MiB
Date: Mon Aug 20 20:36:26 2018
