
  ___ ___ ___ _ _ _  
 |   |   |_  | | | | 
 | | | | | . | | | | 
 |__ |  _|___|_____|  1.4.0
 |___|_|             

User:   ???@3fe09ff0504a
Date:   Mon Aug 20 21:10:09 2018
Arch:   x86_64
Pid:    1882
Python: 3.7.0
gpaw:   /app/gpaw/software/venv/lib/python3.7/site-packages/gpaw
_gpaw:  /app/gpaw/software/venv/lib/python3.7/site-packages/
        _gpaw.cpython-37m-x86_64-linux-gnu.so
ase:    /app/gpaw/software/venv/lib/python3.7/site-packages/ase (version 3.16.2)
numpy:  /app/gpaw/software/venv/lib/python3.7/site-packages/numpy (version 1.15.0)
scipy:  /app/gpaw/software/venv/lib/python3.7/site-packages/scipy (version 1.1.0)
units:  Angstrom and eV
cores:  1

Input parameters:
  gpts: [72 64 72]
  maxiter: 150
  mixer: {backend: pulay,
          beta: None,
          method: separate,
          nmaxold: None,
          weight: None}
  xc: PBE

System changes: positions, numbers, cell, pbc, initial_charges, initial_magmoms 

Initialize ...

Hf-setup:
  name: Hafnium
  id: d03a45b6fa1dd7f07e443d1513edf499
  Z: 72
  valence: 12
  core: 60
  charge: 0.0
  file: /app/gpaw/datasets/Hf.PBE
  cutoffs: 1.30(comp), 2.36(filt), 4.02(core), lmax=2
  valence states:
                energy  radius
    5s(2.00)   -66.831   1.397
    6s(2.00)    -5.097   1.397
    5p(6.00)   -35.599   1.307
    6p(0.00)    -1.401   1.307
    5d(2.00)    -2.699   1.334
    *d          24.513   1.334

  Using partial waves for Hf as LCAO basis

N-setup:
  name: Nitrogen
  id: 45c8c9c739e7b131496b9fd2deb94bff
  Z: 7
  valence: 5
  core: 2
  charge: 0.0
  file: /app/gpaw/datasets/N.PBE
  cutoffs: 0.58(comp), 1.11(filt), 0.96(core), lmax=2
  valence states:
                energy  radius
    2s(2.00)   -18.583   0.603
    2p(3.00)    -7.089   0.529
    *s           8.629   0.603
    *p          20.123   0.529
    *d           0.000   0.577

  Using partial waves for N as LCAO basis

C-setup:
  name: Carbon
  id: 2f012631b351e3618121587a96c50fca
  Z: 6
  valence: 4
  core: 2
  charge: 0.0
  file: /app/gpaw/datasets/C.PBE
  cutoffs: 0.64(comp), 1.14(filt), 1.14(core), lmax=2
  valence states:
                energy  radius
    2s(2.00)   -13.751   0.635
    2p(2.00)    -5.285   0.635
    *s          13.461   0.635
    *p          21.927   0.635
    *d           0.000   0.635

  Using partial waves for C as LCAO basis

Reference energy: -412395.464894

Spin-paired calculation

Occupation numbers:
  Fermi-Dirac: width=0.0000 eV

Convergence criteria:
  Maximum total energy change: 0.0005 eV / electron
  Maximum integral of absolute density change: 0.0001 electrons
  Maximum integral of absolute eigenstate change: 4e-08 eV^2
  Maximum number of iterations: 150

Symmetries present (total): 1

  ( 1  0  0)
  ( 0  1  0)
  ( 0  0  1)

1 k-point (Gamma)
1 k-point in the irreducible part of the Brillouin zone
       k-points in crystal coordinates                weights
   0:     0.00000000    0.00000000    0.00000000          1/1

Wave functions: Uniform real-space grid
  Kinetic energy operator: 6*3+1=19 point O(h^6) finite-difference Laplacian
  ScaLapack parameters: grid=1x1, blocksize=None 

Eigensolver
   Davidson(niter=1, smin=None, normalize=True) 

Densities:
  Coarse grid: 72*64*72 grid
  Fine grid: 144*128*144 grid
  Total Charge: 0.000000 

Density mixing:
  Method: separate
  Backend: pulay
  Linear mixing parameter: 0.25
  Mixing with 3 old densities
  No damping of long wave oscillations 

Hamiltonian:
  XC and Coulomb potentials evaluated on a 144*128*144 grid
  Using the PBE Exchange-Correlation functional
  Interpolation: tri-quintic (5. degree polynomial)
  Poisson solver: Jacobi solver with 5 multi-grid levels
    Coarsest grid: 9 x 8 x 9 points
    Stencil: 6*3+1=19 point O(h^6) finite-difference Laplacian
    Max iterations: 1000
    Tolerance: 2.000000e-10 

Memory estimate:
  Process memory now: 639.89 MiB
  Calculator: 325.36 MiB
    Density: 113.90 MiB
      Arrays: 64.29 MiB
      Localized functions: 35.07 MiB
      Mixer: 14.54 MiB
    Hamiltonian: 92.51 MiB
      Arrays: 42.05 MiB
      XC: 0.00 MiB
      Poisson: 48.10 MiB
      vbar: 2.35 MiB
    Wavefunctions: 118.96 MiB
      Arrays psit_nG: 50.88 MiB
      Eigensolver: 63.03 MiB
      Projections: 0.01 MiB
      Projectors: 5.04 MiB

Total number of cores used: 1

Number of atoms: 3
Number of atomic orbitals: 21
Number of bands in calculation: 21
Bands to converge: occupied states only
Number of valence electrons: 21

... initialized

Initializing position-dependent things.

Density initialized from atomic densities
Creating initial wave functions:
  21 bands from LCAO basis set

      .--------------------.  
     /|                    |  
    / |                    |  
   /  |                    |  
  /   |                    |  
 *    |                    |  
 |    |                    |  
 |    |     Hf   C         |  
 |    |    N               |  
 |    |                    |  
 |    .--------------------.  
 |   /                    /   
 |  /                    /    
 | /                    /     
 |/                    /      
 *--------------------*       

Positions:
   0 Hf     3.350050    4.891250    4.375000    ( 0.0000,  0.0000,  0.0000)
   1 N      3.350050    3.108750    4.125000    ( 0.0000,  0.0000,  0.0000)
   2 C      5.149950    4.891250    4.125000    ( 0.0000,  0.0000,  0.0000)

Unit cell:
           periodic     x           y           z      points  spacing
  1. axis:    no     8.500000    0.000000    0.000000    72     0.1181
  2. axis:    no     0.000000    8.000000    0.000000    64     0.1250
  3. axis:    no     0.000000    0.000000    8.500000    72     0.1181

  Lengths:   8.500000   8.000000   8.500000
  Angles:   90.000000  90.000000  90.000000

Effective grid spacing dv^(1/3) = 0.1203

                     log10-error:    total        iterations:
           time      wfs    density  energy       fermi  poisson
iter:   1  21:10:22  +2.41   +inf   -18.712495    0      15     
iter:   2  21:10:25  +1.15   +inf   -19.279057    0             
iter:   3  21:10:27  +0.59   +inf   -19.461013    0             
iter:   4  21:10:36  +0.61  -0.70   -16.508136    0      11     
iter:   5  21:10:44  +0.85  -0.77   -15.341166    0      9      
iter:   6  21:10:53  +0.52  -0.97   -14.574594    0      9      
iter:   7  21:11:01  +0.19  -1.19   -14.427426    0      9      
iter:   8  21:11:09  +0.49  -1.49   -14.446994    0      8      
iter:   9  21:11:17  -0.23  -1.69   -14.452674    0      7      
iter:  10  21:11:24  +0.10  -1.97   -14.456579    0      5      
iter:  11  21:11:30  -0.77  -2.22   -14.458696    0      5      
iter:  12  21:11:37  -0.62  -2.38   -14.460067    0      5      
iter:  13  21:11:44  -1.24  -2.60   -14.461180    0      4      
iter:  14  21:11:50  -1.12  -2.72   -14.461759    0      4      
iter:  15  21:11:57  -1.64  -2.82   -14.462152    0      5      
iter:  16  21:12:02  -1.61  -3.16   -14.462152    0      3      
iter:  17  21:12:09  -1.95  -3.24   -14.462552    0      4      
iter:  18  21:12:15  -1.98  -3.65   -14.462649    0      3      
iter:  19  21:12:20  -2.25  -3.82   -14.462848    0      2      
iter:  20  21:12:26  -2.30  -3.80   -14.462838    0      2      
iter:  21  21:12:31  -2.54  -3.72   -14.462619    0      2      
iter:  22  21:12:37  -2.57  -3.55   -14.462936    0      3      
iter:  23  21:12:42  -2.85  -3.65   -14.463156    0      2      
iter:  24  21:12:48  -2.92  -3.72   -14.463120    0      3      
iter:  25  21:12:54  -3.20  -4.13   -14.462712    0      2      
iter:  26  21:12:59  -3.20  -4.02   -14.463075    0      2      
iter:  27  21:13:04  -3.57  -4.30   -14.462612    0      1      
iter:  28  21:13:10  -3.49  -4.20   -14.463049    0      2      
iter:  29  21:13:15  -3.90  -4.77   -14.462802    0      1      
iter:  30  21:13:20  -3.78  -4.67   -14.462926    0      1      
iter:  31  21:13:25  -4.20  -4.79   -14.462930    0      1      
iter:  32  21:13:30  -4.08  -4.68   -14.462809    0      1      
iter:  33  21:13:35  -4.48  -4.56   -14.462797    0      1      
iter:  34  21:13:40  -4.35  -4.40   -14.463068    0      1      
iter:  35  21:13:45  -4.75  -4.58   -14.462997    0      1      
iter:  36  21:13:51  -4.67  -4.61   -14.463005    0      2      
iter:  37  21:13:56  -5.06  -5.01   -14.462826    0      1      
iter:  38  21:14:01  -4.98  -5.26   -14.462919    0      1      
iter:  39  21:14:06  -5.40  -5.32   -14.462881    0      1      
iter:  40  21:14:11  -5.27  -5.32   -14.462848    0      1      
iter:  41  21:14:16  -5.68  -5.13   -14.462938    0      1      
iter:  42  21:14:21  -5.55  -5.34   -14.462907    0      1      
iter:  43  21:14:26  -5.97  -5.42   -14.462959    0      1      
iter:  44  21:14:31  -5.86  -5.36   -14.462869    0      1      
iter:  45  21:14:36  -6.24  -5.77   -14.462872    0      1      
iter:  46  21:14:41  -6.15  -5.76   -14.462881    0      1      
iter:  47  21:14:46  -6.51  -6.04   -14.462882    0      1      
iter:  48  21:14:51  -6.44  -6.23   -14.462879    0      1      
iter:  49  21:14:56  -6.78  -6.31   -14.462877    0      1      
iter:  50  21:15:01  -6.73  -6.23   -14.462872    0      1      
iter:  51  21:15:06  -7.03  -5.88   -14.462880    0      1      
iter:  52  21:15:11  -7.00  -6.13   -14.462878    0      1      
iter:  53  21:15:16  -7.30  -6.12   -14.462881    0      1      
iter:  54  21:15:21  -7.29  -6.36   -14.462872    0      1      
iter:  55  21:15:27  -7.55  -6.13   -14.462877    0      1      

Converged after 55 iterations.

Dipole moment: (-0.925982, 1.207689, 0.286372) |e|*Ang

Energy contributions relative to reference atoms: (reference = -412395.464894)

Kinetic:        +23.135172
Potential:      -18.945855
External:        +0.000000
XC:             -18.503945
Entropy (-ST):   +0.000000
Local:           -0.148250
--------------------------
Free energy:    -14.462877
Extrapolated:   -14.462877

Fermi level: -4.93979

 Band  Eigenvalues  Occupancy
    0    -65.01563    2.00000
    1    -34.37564    2.00000
    2    -34.26154    2.00000
    3    -34.17407    2.00000
    4    -15.78214    2.00000
    5    -12.34080    2.00000
    6     -6.57841    2.00000
    7     -5.58880    2.00000
    8     -5.40319    2.00000
    9     -5.02559    2.00000
   10     -4.93979    1.00000
   11     -3.45202    0.00000
   12     -3.01214    0.00000
   13     -1.27235    0.00000
   14     -0.62144    0.00000
   15      0.57577    0.00000
   16      0.88013    0.00000
   17      1.58251    0.00000
   18      2.23373    0.00000
   19      2.57194    0.00000
   20      3.17195    0.00000

Writing to 3_57799_P1_PBE_zy0_2500.gpw (mode='all')

Timing:                              incl.     excl.
-----------------------------------------------------------
Hamiltonian:                         8.855     0.000   0.0% |
 Atomic:                             0.194     0.001   0.0% |
  XC Correction:                     0.194     0.194   0.1% |
 Calculate atomic Hamiltonians:      0.009     0.009   0.0% |
 Communicate:                        0.000     0.000   0.0% |
 Hartree integrate/restrict:         0.034     0.034   0.0% |
 Initialize Hamiltonian:             0.000     0.000   0.0% |
 Poisson:                            6.429     6.429   2.0% ||
 XC 3D grid:                         2.177     2.177   0.7% |
 vbar:                               0.011     0.011   0.0% |
LCAO initialization:                 0.815     0.566   0.2% |
 LCAO eigensolver:                   0.076     0.000   0.0% |
  Calculate projections:             0.000     0.000   0.0% |
  DenseAtomicCorrection:             0.000     0.000   0.0% |
  Distribute overlap matrix:         0.000     0.000   0.0% |
  Orbital Layouts:                   0.000     0.000   0.0% |
  Potential matrix:                  0.076     0.076   0.0% |
 LCAO to grid:                       0.169     0.169   0.1% |
 Set positions (LCAO WFS):           0.004     0.000   0.0% |
  Basic WFS set positions:           0.000     0.000   0.0% |
  Basis functions set positions:     0.000     0.000   0.0% |
  TCI: Calculate S, T, P:            0.003     0.003   0.0% |
SCF-cycle:                         306.427     0.022   0.0% |
 Davidson:                         115.010    20.853   6.6% |--|
  Apply hamiltonian:                 8.866     8.866   2.8% ||
  Subspace diag:                    32.850     0.006   0.0% |
   calc_h_matrix:                   16.344     7.474   2.4% ||
    Apply hamiltonian:               8.869     8.869   2.8% ||
   diagonalize:                      0.012     0.012   0.0% |
   rotate_psi:                      16.488    16.488   5.2% |-|
  calc. matrices:                   35.963    27.115   8.5% |--|
   Apply hamiltonian:                8.848     8.848   2.8% ||
  diagonalize:                       0.044     0.044   0.0% |
  rotate_psi:                       16.434    16.434   5.2% |-|
 Density:                            4.186     0.001   0.0% |
  Atomic density matrices:           0.037     0.037   0.0% |
  Mix:                               3.003     3.003   0.9% |
  Multipole moments:                 0.010     0.010   0.0% |
  Pseudo density:                    1.136     1.135   0.4% |
   Symmetrize density:               0.001     0.001   0.0% |
 Hamiltonian:                      187.010     0.006   0.0% |
  Atomic:                           10.153     0.047   0.0% |
   XC Correction:                   10.107    10.107   3.2% ||
  Calculate atomic Hamiltonians:     0.453     0.453   0.1% |
  Communicate:                       0.000     0.000   0.0% |
  Hartree integrate/restrict:        1.764     1.764   0.6% |
  Poisson:                          60.332    60.332  19.0% |-------|
  XC 3D grid:                      113.978   113.978  35.9% |-------------|
  vbar:                              0.324     0.324   0.1% |
 Orthonormalize:                     0.200     0.000   0.0% |
  calc_s_matrix:                     0.073     0.073   0.0% |
  inverse-cholesky:                  0.000     0.000   0.0% |
  projections:                       0.028     0.028   0.0% |
  rotate_psi_s:                      0.098     0.098   0.0% |
Set symmetry:                        0.001     0.001   0.0% |
Other:                               1.116     1.116   0.4% |
-----------------------------------------------------------
Total:                                       317.214 100.0%

Memory usage: 642.37 MiB
Date: Mon Aug 20 21:15:27 2018
