
  ___ ___ ___ _ _ _  
 |   |   |_  | | | | 
 | | | | | . | | | | 
 |__ |  _|___|_____|  1.4.0
 |___|_|             

User:   ???@3fe09ff0504a
Date:   Tue Aug 21 12:16:21 2018
Arch:   x86_64
Pid:    2456
Python: 3.7.0
gpaw:   /app/gpaw/software/venv/lib/python3.7/site-packages/gpaw
_gpaw:  /app/gpaw/software/venv/lib/python3.7/site-packages/
        _gpaw.cpython-37m-x86_64-linux-gnu.so
ase:    /app/gpaw/software/venv/lib/python3.7/site-packages/ase (version 3.16.2)
numpy:  /app/gpaw/software/venv/lib/python3.7/site-packages/numpy (version 1.15.0)
scipy:  /app/gpaw/software/venv/lib/python3.7/site-packages/scipy (version 1.1.0)
units:  Angstrom and eV
cores:  1

Input parameters:
  gpts: [72 64 72]
  maxiter: 150
  mixer: {backend: pulay,
          beta: None,
          method: separate,
          nmaxold: None,
          weight: None}
  xc: PBE

System changes: positions, numbers, cell, pbc, initial_charges, initial_magmoms 

Initialize ...

Hf-setup:
  name: Hafnium
  id: d03a45b6fa1dd7f07e443d1513edf499
  Z: 72
  valence: 12
  core: 60
  charge: 0.0
  file: /app/gpaw/datasets/Hf.PBE
  cutoffs: 1.30(comp), 2.36(filt), 4.02(core), lmax=2
  valence states:
                energy  radius
    5s(2.00)   -66.831   1.397
    6s(2.00)    -5.097   1.397
    5p(6.00)   -35.599   1.307
    6p(0.00)    -1.401   1.307
    5d(2.00)    -2.699   1.334
    *d          24.513   1.334

  Using partial waves for Hf as LCAO basis

N-setup:
  name: Nitrogen
  id: 45c8c9c739e7b131496b9fd2deb94bff
  Z: 7
  valence: 5
  core: 2
  charge: 0.0
  file: /app/gpaw/datasets/N.PBE
  cutoffs: 0.58(comp), 1.11(filt), 0.96(core), lmax=2
  valence states:
                energy  radius
    2s(2.00)   -18.583   0.603
    2p(3.00)    -7.089   0.529
    *s           8.629   0.603
    *p          20.123   0.529
    *d           0.000   0.577

  Using partial waves for N as LCAO basis

C-setup:
  name: Carbon
  id: 2f012631b351e3618121587a96c50fca
  Z: 6
  valence: 4
  core: 2
  charge: 0.0
  file: /app/gpaw/datasets/C.PBE
  cutoffs: 0.64(comp), 1.14(filt), 1.14(core), lmax=2
  valence states:
                energy  radius
    2s(2.00)   -13.751   0.635
    2p(2.00)    -5.285   0.635
    *s          13.461   0.635
    *p          21.927   0.635
    *d           0.000   0.635

  Using partial waves for C as LCAO basis

Reference energy: -412395.464894

Spin-paired calculation

Occupation numbers:
  Fermi-Dirac: width=0.0000 eV

Convergence criteria:
  Maximum total energy change: 0.0005 eV / electron
  Maximum integral of absolute density change: 0.0001 electrons
  Maximum integral of absolute eigenstate change: 4e-08 eV^2
  Maximum number of iterations: 150

Symmetries present (total): 1

  ( 1  0  0)
  ( 0  1  0)
  ( 0  0  1)

1 k-point (Gamma)
1 k-point in the irreducible part of the Brillouin zone
       k-points in crystal coordinates                weights
   0:     0.00000000    0.00000000    0.00000000          1/1

Wave functions: Uniform real-space grid
  Kinetic energy operator: 6*3+1=19 point O(h^6) finite-difference Laplacian
  ScaLapack parameters: grid=1x1, blocksize=None 

Eigensolver
   Davidson(niter=1, smin=None, normalize=True) 

Densities:
  Coarse grid: 72*64*72 grid
  Fine grid: 144*128*144 grid
  Total Charge: 0.000000 

Density mixing:
  Method: separate
  Backend: pulay
  Linear mixing parameter: 0.25
  Mixing with 3 old densities
  No damping of long wave oscillations 

Hamiltonian:
  XC and Coulomb potentials evaluated on a 144*128*144 grid
  Using the PBE Exchange-Correlation functional
  Interpolation: tri-quintic (5. degree polynomial)
  Poisson solver: Jacobi solver with 5 multi-grid levels
    Coarsest grid: 9 x 8 x 9 points
    Stencil: 6*3+1=19 point O(h^6) finite-difference Laplacian
    Max iterations: 1000
    Tolerance: 2.000000e-10 

Memory estimate:
  Process memory now: 648.27 MiB
  Calculator: 325.36 MiB
    Density: 113.90 MiB
      Arrays: 64.29 MiB
      Localized functions: 35.07 MiB
      Mixer: 14.54 MiB
    Hamiltonian: 92.51 MiB
      Arrays: 42.05 MiB
      XC: 0.00 MiB
      Poisson: 48.10 MiB
      vbar: 2.35 MiB
    Wavefunctions: 118.96 MiB
      Arrays psit_nG: 50.88 MiB
      Eigensolver: 63.03 MiB
      Projections: 0.01 MiB
      Projectors: 5.04 MiB

Total number of cores used: 1

Number of atoms: 3
Number of atomic orbitals: 21
Number of bands in calculation: 21
Bands to converge: occupied states only
Number of valence electrons: 21

... initialized

Initializing position-dependent things.

Density initialized from atomic densities
Creating initial wave functions:
  21 bands from LCAO basis set

      .--------------------.  
     /|                    |  
    / |                    |  
   /  |                    |  
  /   |                    |  
 *    |                    |  
 |    |                    |  
 |    |     Hf   C         |  
 |    |    N               |  
 |    |                    |  
 |    .--------------------.  
 |   /                    /   
 |  /                    /    
 | /                    /     
 |/                    /      
 *--------------------*       

Positions:
   0 Hf     3.350050    4.891250    4.245000    ( 0.0000,  0.0000,  0.0000)
   1 N      3.350050    3.108750    4.255000    ( 0.0000,  0.0000,  0.0000)
   2 C      5.149950    4.891250    4.255000    ( 0.0000,  0.0000,  0.0000)

Unit cell:
           periodic     x           y           z      points  spacing
  1. axis:    no     8.500000    0.000000    0.000000    72     0.1181
  2. axis:    no     0.000000    8.000000    0.000000    64     0.1250
  3. axis:    no     0.000000    0.000000    8.500000    72     0.1181

  Lengths:   8.500000   8.000000   8.500000
  Angles:   90.000000  90.000000  90.000000

Effective grid spacing dv^(1/3) = 0.1203

                     log10-error:    total        iterations:
           time      wfs    density  energy       fermi  poisson
iter:   1  12:16:34  +2.41   +inf   -18.561302    0      15     
iter:   2  12:16:36  +1.17   +inf   -19.156968    0             
iter:   3  12:16:38  +0.59   +inf   -19.349180    0             
iter:   4  12:16:47  +0.61  -0.70   -16.371975    0      11     
iter:   5  12:16:56  +0.83  -0.77   -15.237843    0      9      
iter:   6  12:17:04  +0.53  -0.97   -14.456989    0      9      
iter:   7  12:17:13  +0.22  -1.20   -14.324693    0      9      
iter:   8  12:17:21  +0.52  -1.50   -14.348168    0      7      
iter:   9  12:17:28  -0.24  -1.68   -14.353326    0      7      
Timing:                              incl.     excl.
-----------------------------------------------------------
Hamiltonian:                         8.928     0.000   0.0% |
 Atomic:                             0.198     0.001   0.0% |
  XC Correction:                     0.197     0.197   0.3% |
 Calculate atomic Hamiltonians:      0.009     0.009   0.0% |
 Communicate:                        0.000     0.000   0.0% |
 Hartree integrate/restrict:         0.035     0.035   0.0% |
 Initialize Hamiltonian:             0.000     0.000   0.0% |
 Poisson:                            6.502     6.502   8.9% |---|
 XC 3D grid:                         2.173     2.173   3.0% ||
 vbar:                               0.011     0.011   0.0% |
LCAO initialization:                 0.766     0.518   0.7% |
 LCAO eigensolver:                   0.076     0.000   0.0% |
  Calculate projections:             0.000     0.000   0.0% |
  DenseAtomicCorrection:             0.000     0.000   0.0% |
  Distribute overlap matrix:         0.000     0.000   0.0% |
  Orbital Layouts:                   0.000     0.000   0.0% |
  Potential matrix:                  0.076     0.076   0.1% |
 LCAO to grid:                       0.169     0.169   0.2% |
 Set positions (LCAO WFS):           0.004     0.000   0.0% |
  Basic WFS set positions:           0.000     0.000   0.0% |
  Basis functions set positions:     0.000     0.000   0.0% |
  TCI: Calculate S, T, P:            0.003     0.003   0.0% |
SCF-cycle:                          61.924     0.006   0.0% |
 Davidson:                          19.635     3.463   4.8% |-|
  Apply hamiltonian:                 1.458     1.458   2.0% ||
  Subspace diag:                     6.044     0.001   0.0% |
   calc_h_matrix:                    2.966     1.347   1.9% ||
    Apply hamiltonian:               1.619     1.619   2.2% ||
   diagonalize:                      0.002     0.002   0.0% |
   rotate_psi:                       3.074     3.074   4.2% |-|
  calc. matrices:                    5.907     4.451   6.1% |-|
   Apply hamiltonian:                1.456     1.456   2.0% ||
  diagonalize:                       0.007     0.007   0.0% |
  rotate_psi:                        2.756     2.756   3.8% |-|
 Density:                            0.565     0.000   0.0% |
  Atomic density matrices:           0.005     0.005   0.0% |
  Mix:                               0.404     0.404   0.6% |
  Multipole moments:                 0.001     0.001   0.0% |
  Pseudo density:                    0.155     0.154   0.2% |
   Symmetrize density:               0.000     0.000   0.0% |
 Hamiltonian:                       41.517     0.001   0.0% |
  Atomic:                            1.381     0.006   0.0% |
   XC Correction:                    1.375     1.375   1.9% ||
  Calculate atomic Hamiltonians:     0.061     0.061   0.1% |
  Communicate:                       0.000     0.000   0.0% |
  Hartree integrate/restrict:        0.240     0.240   0.3% |
  Poisson:                          24.477    24.477  33.7% |------------|
  XC 3D grid:                       15.314    15.314  21.1% |-------|
  vbar:                              0.043     0.043   0.1% |
 Orthonormalize:                     0.202     0.000   0.0% |
  calc_s_matrix:                     0.073     0.073   0.1% |
  inverse-cholesky:                  0.000     0.000   0.0% |
  projections:                       0.028     0.028   0.0% |
  rotate_psi_s:                      0.100     0.100   0.1% |
Set symmetry:                        0.001     0.001   0.0% |
Other:                               1.088     1.088   1.5% ||
-----------------------------------------------------------
Total:                                        72.707 100.0%

Memory usage: 648.27 MiB
Date: Tue Aug 21 12:17:34 2018
