
  ___ ___ ___ _ _ _  
 |   |   |_  | | | | 
 | | | | | . | | | | 
 |__ |  _|___|_____|  1.4.0
 |___|_|             

User:   ???@3fe09ff0504a
Date:   Mon Aug 20 19:49:12 2018
Arch:   x86_64
Pid:    1882
Python: 3.7.0
gpaw:   /app/gpaw/software/venv/lib/python3.7/site-packages/gpaw
_gpaw:  /app/gpaw/software/venv/lib/python3.7/site-packages/
        _gpaw.cpython-37m-x86_64-linux-gnu.so
ase:    /app/gpaw/software/venv/lib/python3.7/site-packages/ase (version 3.16.2)
numpy:  /app/gpaw/software/venv/lib/python3.7/site-packages/numpy (version 1.15.0)
scipy:  /app/gpaw/software/venv/lib/python3.7/site-packages/scipy (version 1.1.0)
units:  Angstrom and eV
cores:  1

Input parameters:
  gpts: [72 64 72]
  maxiter: 150
  mixer: {backend: pulay,
          beta: None,
          method: separate,
          nmaxold: None,
          weight: None}
  xc: PBE

System changes: positions, numbers, cell, pbc, initial_charges, initial_magmoms 

Initialize ...

Hf-setup:
  name: Hafnium
  id: d03a45b6fa1dd7f07e443d1513edf499
  Z: 72
  valence: 12
  core: 60
  charge: 0.0
  file: /app/gpaw/datasets/Hf.PBE
  cutoffs: 1.30(comp), 2.36(filt), 4.02(core), lmax=2
  valence states:
                energy  radius
    5s(2.00)   -66.831   1.397
    6s(2.00)    -5.097   1.397
    5p(6.00)   -35.599   1.307
    6p(0.00)    -1.401   1.307
    5d(2.00)    -2.699   1.334
    *d          24.513   1.334

  Using partial waves for Hf as LCAO basis

N-setup:
  name: Nitrogen
  id: 45c8c9c739e7b131496b9fd2deb94bff
  Z: 7
  valence: 5
  core: 2
  charge: 0.0
  file: /app/gpaw/datasets/N.PBE
  cutoffs: 0.58(comp), 1.11(filt), 0.96(core), lmax=2
  valence states:
                energy  radius
    2s(2.00)   -18.583   0.603
    2p(3.00)    -7.089   0.529
    *s           8.629   0.603
    *p          20.123   0.529
    *d           0.000   0.577

  Using partial waves for N as LCAO basis

C-setup:
  name: Carbon
  id: 2f012631b351e3618121587a96c50fca
  Z: 6
  valence: 4
  core: 2
  charge: 0.0
  file: /app/gpaw/datasets/C.PBE
  cutoffs: 0.64(comp), 1.14(filt), 1.14(core), lmax=2
  valence states:
                energy  radius
    2s(2.00)   -13.751   0.635
    2p(2.00)    -5.285   0.635
    *s          13.461   0.635
    *p          21.927   0.635
    *d           0.000   0.635

  Using partial waves for C as LCAO basis

Reference energy: -412395.464894

Spin-paired calculation

Occupation numbers:
  Fermi-Dirac: width=0.0000 eV

Convergence criteria:
  Maximum total energy change: 0.0005 eV / electron
  Maximum integral of absolute density change: 0.0001 electrons
  Maximum integral of absolute eigenstate change: 4e-08 eV^2
  Maximum number of iterations: 150

Symmetries present (total): 1

  ( 1  0  0)
  ( 0  1  0)
  ( 0  0  1)

1 k-point (Gamma)
1 k-point in the irreducible part of the Brillouin zone
       k-points in crystal coordinates                weights
   0:     0.00000000    0.00000000    0.00000000          1/1

Wave functions: Uniform real-space grid
  Kinetic energy operator: 6*3+1=19 point O(h^6) finite-difference Laplacian
  ScaLapack parameters: grid=1x1, blocksize=None 

Eigensolver
   Davidson(niter=1, smin=None, normalize=True) 

Densities:
  Coarse grid: 72*64*72 grid
  Fine grid: 144*128*144 grid
  Total Charge: 0.000000 

Density mixing:
  Method: separate
  Backend: pulay
  Linear mixing parameter: 0.25
  Mixing with 3 old densities
  No damping of long wave oscillations 

Hamiltonian:
  XC and Coulomb potentials evaluated on a 144*128*144 grid
  Using the PBE Exchange-Correlation functional
  Interpolation: tri-quintic (5. degree polynomial)
  Poisson solver: Jacobi solver with 5 multi-grid levels
    Coarsest grid: 9 x 8 x 9 points
    Stencil: 6*3+1=19 point O(h^6) finite-difference Laplacian
    Max iterations: 1000
    Tolerance: 2.000000e-10 

Memory estimate:
  Process memory now: 41.54 MiB
  Calculator: 325.36 MiB
    Density: 113.90 MiB
      Arrays: 64.29 MiB
      Localized functions: 35.07 MiB
      Mixer: 14.54 MiB
    Hamiltonian: 92.51 MiB
      Arrays: 42.05 MiB
      XC: 0.00 MiB
      Poisson: 48.10 MiB
      vbar: 2.35 MiB
    Wavefunctions: 118.96 MiB
      Arrays psit_nG: 50.88 MiB
      Eigensolver: 63.03 MiB
      Projections: 0.01 MiB
      Projectors: 5.04 MiB

Total number of cores used: 1

Number of atoms: 3
Number of atomic orbitals: 21
Number of bands in calculation: 21
Bands to converge: occupied states only
Number of valence electrons: 21

... initialized

Initializing position-dependent things.

Density initialized from atomic densities
Creating initial wave functions:
  21 bands from LCAO basis set

      .--------------------.  
     /|                    |  
    / |                    |  
   /  |                    |  
  /   |                    |  
 *    |                    |  
 |    |                    |  
 |    |     Hf   C         |  
 |    |    N               |  
 |    |                    |  
 |    .--------------------.  
 |   /                    /   
 |  /                    /    
 | /                    /     
 |/                    /      
 *--------------------*       

Positions:
   0 Hf     3.350050    4.891250    4.300000    ( 0.0000,  0.0000,  0.0000)
   1 N      3.350050    3.108750    4.200000    ( 0.0000,  0.0000,  0.0000)
   2 C      5.149950    4.891250    4.200000    ( 0.0000,  0.0000,  0.0000)

Unit cell:
           periodic     x           y           z      points  spacing
  1. axis:    no     8.500000    0.000000    0.000000    72     0.1181
  2. axis:    no     0.000000    8.000000    0.000000    64     0.1250
  3. axis:    no     0.000000    0.000000    8.500000    72     0.1181

  Lengths:   8.500000   8.000000   8.500000
  Angles:   90.000000  90.000000  90.000000

Effective grid spacing dv^(1/3) = 0.1203

                     log10-error:    total        iterations:
           time      wfs    density  energy       fermi  poisson
iter:   1  19:49:26  +2.41   +inf   -18.586477    0      15     
iter:   2  19:49:28  +1.17   +inf   -19.176727    0             
iter:   3  19:49:31  +0.60   +inf   -19.367356    0             
iter:   4  19:49:41  +0.61  -0.70   -16.394401    0      11     
iter:   5  19:49:50  +0.85  -0.77   -15.255603    0      9      
iter:   6  19:49:59  +0.53  -0.97   -14.477138    0      9      
iter:   7  19:50:08  +0.22  -1.20   -14.342186    0      9      
iter:   8  19:50:17  +0.52  -1.50   -14.365630    0      7      
iter:   9  19:50:25  -0.23  -1.68   -14.370762    0      7      
iter:  10  19:50:33  +0.13  -1.97   -14.375006    0      5      
iter:  11  19:50:40  -0.79  -2.22   -14.376915    0      5      
iter:  12  19:50:47  -0.63  -2.43   -14.378518    0      4      
iter:  13  19:50:54  -1.23  -2.61   -14.379541    0      4      
iter:  14  19:51:01  -1.09  -2.66   -14.380224    0      5      
iter:  15  19:51:07  -1.70  -3.10   -14.380144    0      4      
iter:  16  19:51:13  -1.46  -3.19   -14.380587    0      3      
iter:  17  19:51:19  -2.12  -3.24   -14.380904    0      3      
iter:  18  19:51:25  -1.83  -3.23   -14.381113    0      3      
iter:  19  19:51:31  -2.48  -3.43   -14.381319    0      3      
iter:  20  19:51:37  -2.25  -3.79   -14.381343    0      2      
iter:  21  19:51:43  -2.80  -3.87   -14.381323    0      3      
iter:  22  19:51:48  -2.64  -4.34   -14.381017    0      1      
iter:  23  19:51:54  -3.10  -4.27   -14.381226    0      2      
iter:  24  19:51:59  -2.96  -4.20   -14.380997    0      1      
iter:  25  19:52:04  -3.38  -4.02   -14.381264    0      1      
iter:  26  19:52:09  -3.25  -4.00   -14.381319    0      2      
iter:  27  19:52:15  -3.70  -4.13   -14.381176    0      2      
iter:  28  19:52:21  -3.57  -3.96   -14.381347    0      3      
iter:  29  19:52:26  -4.00  -4.35   -14.381060    0      2      
iter:  30  19:52:32  -3.84  -4.48   -14.381288    0      1      
iter:  31  19:52:37  -4.43  -4.59   -14.381278    0      2      
iter:  32  19:52:42  -4.19  -4.98   -14.381139    0      1      
iter:  33  19:52:47  -4.72  -5.05   -14.381252    0      1      
iter:  34  19:52:52  -4.49  -5.31   -14.381184    0      1      
iter:  35  19:52:58  -5.01  -5.17   -14.381211    0      1      
iter:  36  19:53:03  -4.79  -5.09   -14.381167    0      1      
iter:  37  19:53:08  -5.29  -4.93   -14.381280    0      1      
iter:  38  19:53:13  -5.10  -5.10   -14.381252    0      1      
iter:  39  19:53:18  -5.62  -5.20   -14.381340    0      1      
iter:  40  19:53:23  -5.43  -5.51   -14.381168    0      1      
iter:  41  19:53:28  -5.90  -5.52   -14.381205    0      1      
iter:  42  19:53:33  -5.75  -5.37   -14.381151    0      1      
iter:  43  19:53:38  -6.14  -5.36   -14.381181    0      1      
iter:  44  19:53:43  -6.03  -5.28   -14.381163    0      1      
iter:  45  19:53:49  -6.40  -5.21   -14.381199    0      1      
iter:  46  19:53:54  -6.31  -5.19   -14.381195    0      1      
iter:  47  19:53:59  -6.69  -5.14   -14.381178    0      1      
iter:  48  19:54:04  -6.58  -5.14   -14.381253    0      1      
iter:  49  19:54:09  -7.03  -5.24   -14.381290    0      1      
iter:  50  19:54:14  -6.96  -5.41   -14.381183    0      1      
iter:  51  19:54:19  -7.28  -5.84   -14.381208    0      1      
iter:  52  19:54:24  -7.32  -6.05   -14.381196    0      1      
iter:  53  19:54:30  -7.58  -6.09   -14.381200    0      1      

Converged after 53 iterations.

Dipole moment: (-0.929082, 1.204984, 0.114716) |e|*Ang

Energy contributions relative to reference atoms: (reference = -412395.464894)

Kinetic:        +25.890467
Potential:      -21.151125
External:        +0.000000
XC:             -18.986141
Entropy (-ST):   +0.000000
Local:           -0.134401
--------------------------
Free energy:    -14.381200
Extrapolated:   -14.381200

Fermi level: -4.90216

 Band  Eigenvalues  Occupancy
    0    -64.94263    2.00000
    1    -34.33523    2.00000
    2    -34.18993    2.00000
    3    -34.15388    2.00000
    4    -15.78646    2.00000
    5    -12.31751    2.00000
    6     -6.63797    2.00000
    7     -5.63111    2.00000
    8     -5.42701    2.00000
    9     -5.07121    2.00000
   10     -4.90216    1.00000
   11     -3.48145    0.00000
   12     -2.98638    0.00000
   13     -1.24297    0.00000
   14     -0.55893    0.00000
   15      0.69093    0.00000
   16      0.96286    0.00000
   17      1.67804    0.00000
   18      2.29774    0.00000
   19      2.64214    0.00000
   20      3.17675    0.00000

Writing to 3_57799_P1_PBE_zy0_1.gpw (mode='all')

Timing:                              incl.     excl.
-----------------------------------------------------------
Hamiltonian:                         9.353     0.000   0.0% |
 Atomic:                             0.210     0.001   0.0% |
  XC Correction:                     0.209     0.209   0.1% |
 Calculate atomic Hamiltonians:      0.009     0.009   0.0% |
 Communicate:                        0.000     0.000   0.0% |
 Hartree integrate/restrict:         0.045     0.045   0.0% |
 Initialize Hamiltonian:             0.000     0.000   0.0% |
 Poisson:                            6.824     6.824   2.1% ||
 XC 3D grid:                         2.252     2.252   0.7% |
 vbar:                               0.012     0.012   0.0% |
LCAO initialization:                 0.858     0.607   0.2% |
 LCAO eigensolver:                   0.077     0.000   0.0% |
  Calculate projections:             0.000     0.000   0.0% |
  DenseAtomicCorrection:             0.000     0.000   0.0% |
  Distribute overlap matrix:         0.000     0.000   0.0% |
  Orbital Layouts:                   0.000     0.000   0.0% |
  Potential matrix:                  0.076     0.076   0.0% |
 LCAO to grid:                       0.170     0.170   0.1% |
 Set positions (LCAO WFS):           0.005     0.000   0.0% |
  Basic WFS set positions:           0.000     0.000   0.0% |
  Basis functions set positions:     0.000     0.000   0.0% |
  TCI: Calculate S, T, P:            0.004     0.004   0.0% |
SCF-cycle:                         306.587     0.021   0.0% |
 Davidson:                         118.442    21.114   6.6% |--|
  Apply hamiltonian:                 8.783     8.783   2.8% ||
  Subspace diag:                    34.283     0.005   0.0% |
   calc_h_matrix:                   16.886     8.113   2.6% ||
    Apply hamiltonian:               8.773     8.773   2.8% ||
   diagonalize:                      0.012     0.012   0.0% |
   rotate_psi:                      17.379    17.379   5.5% |-|
  calc. matrices:                   36.968    28.208   8.9% |---|
   Apply hamiltonian:                8.760     8.760   2.8% ||
  diagonalize:                       0.043     0.043   0.0% |
  rotate_psi:                       17.250    17.250   5.4% |-|
 Density:                            4.318     0.001   0.0% |
  Atomic density matrices:           0.035     0.035   0.0% |
  Mix:                               3.088     3.088   1.0% |
  Multipole moments:                 0.009     0.009   0.0% |
  Pseudo density:                    1.185     1.184   0.4% |
   Symmetrize density:               0.001     0.001   0.0% |
 Hamiltonian:                      183.595     0.006   0.0% |
  Atomic:                            9.906     0.044   0.0% |
   XC Correction:                    9.862     9.862   3.1% ||
  Calculate atomic Hamiltonians:     0.438     0.438   0.1% |
  Communicate:                       0.000     0.000   0.0% |
  Hartree integrate/restrict:        1.846     1.846   0.6% |
  Poisson:                          60.378    60.378  19.0% |-------|
  XC 3D grid:                      110.678   110.678  34.8% |-------------|
  vbar:                              0.343     0.343   0.1% |
 Orthonormalize:                     0.210     0.000   0.0% |
  calc_s_matrix:                     0.080     0.080   0.0% |
  inverse-cholesky:                  0.000     0.000   0.0% |
  projections:                       0.029     0.029   0.0% |
  rotate_psi_s:                      0.102     0.102   0.0% |
Set symmetry:                        0.001     0.001   0.0% |
Other:                               1.266     1.266   0.4% |
-----------------------------------------------------------
Total:                                       318.064 100.0%

Memory usage: 598.41 MiB
Date: Mon Aug 20 19:54:30 2018
