
  ___ ___ ___ _ _ _  
 |   |   |_  | | | | 
 | | | | | . | | | | 
 |__ |  _|___|_____|  1.4.0
 |___|_|             

User:   ???@3fe09ff0504a
Date:   Mon Aug 20 20:10:11 2018
Arch:   x86_64
Pid:    1882
Python: 3.7.0
gpaw:   /app/gpaw/software/venv/lib/python3.7/site-packages/gpaw
_gpaw:  /app/gpaw/software/venv/lib/python3.7/site-packages/
        _gpaw.cpython-37m-x86_64-linux-gnu.so
ase:    /app/gpaw/software/venv/lib/python3.7/site-packages/ase (version 3.16.2)
numpy:  /app/gpaw/software/venv/lib/python3.7/site-packages/numpy (version 1.15.0)
scipy:  /app/gpaw/software/venv/lib/python3.7/site-packages/scipy (version 1.1.0)
units:  Angstrom and eV
cores:  1

Input parameters:
  gpts: [72 64 72]
  maxiter: 150
  mixer: {backend: pulay,
          beta: None,
          method: separate,
          nmaxold: None,
          weight: None}
  xc: PBE

System changes: positions, numbers, cell, pbc, initial_charges, initial_magmoms 

Initialize ...

Hf-setup:
  name: Hafnium
  id: d03a45b6fa1dd7f07e443d1513edf499
  Z: 72
  valence: 12
  core: 60
  charge: 0.0
  file: /app/gpaw/datasets/Hf.PBE
  cutoffs: 1.30(comp), 2.36(filt), 4.02(core), lmax=2
  valence states:
                energy  radius
    5s(2.00)   -66.831   1.397
    6s(2.00)    -5.097   1.397
    5p(6.00)   -35.599   1.307
    6p(0.00)    -1.401   1.307
    5d(2.00)    -2.699   1.334
    *d          24.513   1.334

  Using partial waves for Hf as LCAO basis

N-setup:
  name: Nitrogen
  id: 45c8c9c739e7b131496b9fd2deb94bff
  Z: 7
  valence: 5
  core: 2
  charge: 0.0
  file: /app/gpaw/datasets/N.PBE
  cutoffs: 0.58(comp), 1.11(filt), 0.96(core), lmax=2
  valence states:
                energy  radius
    2s(2.00)   -18.583   0.603
    2p(3.00)    -7.089   0.529
    *s           8.629   0.603
    *p          20.123   0.529
    *d           0.000   0.577

  Using partial waves for N as LCAO basis

C-setup:
  name: Carbon
  id: 2f012631b351e3618121587a96c50fca
  Z: 6
  valence: 4
  core: 2
  charge: 0.0
  file: /app/gpaw/datasets/C.PBE
  cutoffs: 0.64(comp), 1.14(filt), 1.14(core), lmax=2
  valence states:
                energy  radius
    2s(2.00)   -13.751   0.635
    2p(2.00)    -5.285   0.635
    *s          13.461   0.635
    *p          21.927   0.635
    *d           0.000   0.635

  Using partial waves for C as LCAO basis

Reference energy: -412395.464894

Spin-paired calculation

Occupation numbers:
  Fermi-Dirac: width=0.0000 eV

Convergence criteria:
  Maximum total energy change: 0.0005 eV / electron
  Maximum integral of absolute density change: 0.0001 electrons
  Maximum integral of absolute eigenstate change: 4e-08 eV^2
  Maximum number of iterations: 150

Symmetries present (total): 1

  ( 1  0  0)
  ( 0  1  0)
  ( 0  0  1)

1 k-point (Gamma)
1 k-point in the irreducible part of the Brillouin zone
       k-points in crystal coordinates                weights
   0:     0.00000000    0.00000000    0.00000000          1/1

Wave functions: Uniform real-space grid
  Kinetic energy operator: 6*3+1=19 point O(h^6) finite-difference Laplacian
  ScaLapack parameters: grid=1x1, blocksize=None 

Eigensolver
   Davidson(niter=1, smin=None, normalize=True) 

Densities:
  Coarse grid: 72*64*72 grid
  Fine grid: 144*128*144 grid
  Total Charge: 0.000000 

Density mixing:
  Method: separate
  Backend: pulay
  Linear mixing parameter: 0.25
  Mixing with 3 old densities
  No damping of long wave oscillations 

Hamiltonian:
  XC and Coulomb potentials evaluated on a 144*128*144 grid
  Using the PBE Exchange-Correlation functional
  Interpolation: tri-quintic (5. degree polynomial)
  Poisson solver: Jacobi solver with 5 multi-grid levels
    Coarsest grid: 9 x 8 x 9 points
    Stencil: 6*3+1=19 point O(h^6) finite-difference Laplacian
    Max iterations: 1000
    Tolerance: 2.000000e-10 

Memory estimate:
  Process memory now: 604.35 MiB
  Calculator: 325.36 MiB
    Density: 113.90 MiB
      Arrays: 64.29 MiB
      Localized functions: 35.07 MiB
      Mixer: 14.54 MiB
    Hamiltonian: 92.51 MiB
      Arrays: 42.05 MiB
      XC: 0.00 MiB
      Poisson: 48.10 MiB
      vbar: 2.35 MiB
    Wavefunctions: 118.96 MiB
      Arrays psit_nG: 50.88 MiB
      Eigensolver: 63.03 MiB
      Projections: 0.01 MiB
      Projectors: 5.04 MiB

Total number of cores used: 1

Number of atoms: 3
Number of atomic orbitals: 21
Number of bands in calculation: 21
Bands to converge: occupied states only
Number of valence electrons: 21

... initialized

Initializing position-dependent things.

Density initialized from atomic densities
Creating initial wave functions:
  21 bands from LCAO basis set

      .--------------------.  
     /|                    |  
    / |                    |  
   /  |                    |  
  /   |                    |  
 *    |                    |  
 |    |                    |  
 |    |     Hf   C         |  
 |    |    N               |  
 |    |                    |  
 |    .--------------------.  
 |   /                    /   
 |  /                    /    
 | /                    /     
 |/                    /      
 *--------------------*       

Positions:
   0 Hf     3.350050    4.891250    4.320000    ( 0.0000,  0.0000,  0.0000)
   1 N      3.350050    3.108750    4.180000    ( 0.0000,  0.0000,  0.0000)
   2 C      5.149950    4.891250    4.180000    ( 0.0000,  0.0000,  0.0000)

Unit cell:
           periodic     x           y           z      points  spacing
  1. axis:    no     8.500000    0.000000    0.000000    72     0.1181
  2. axis:    no     0.000000    8.000000    0.000000    64     0.1250
  3. axis:    no     0.000000    0.000000    8.500000    72     0.1181

  Lengths:   8.500000   8.000000   8.500000
  Angles:   90.000000  90.000000  90.000000

Effective grid spacing dv^(1/3) = 0.1203

                     log10-error:    total        iterations:
           time      wfs    density  energy       fermi  poisson
iter:   1  20:10:24  +2.41   +inf   -18.610870    0      15     
iter:   2  20:10:26  +1.17   +inf   -19.196484    0             
iter:   3  20:10:29  +0.60   +inf   -19.385434    0             
iter:   4  20:10:38  +0.61  -0.70   -16.416320    0      11     
iter:   5  20:10:47  +0.86  -0.77   -15.272737    0      9      
iter:   6  20:10:55  +0.53  -0.97   -14.496493    0      9      
iter:   7  20:11:04  +0.22  -1.20   -14.359130    0      9      
iter:   8  20:11:11  +0.51  -1.50   -14.382075    0      7      
iter:   9  20:11:19  -0.23  -1.68   -14.387135    0      7      
iter:  10  20:11:26  +0.12  -1.97   -14.391317    0      5      
iter:  11  20:11:32  -0.78  -2.22   -14.393253    0      5      
iter:  12  20:11:39  -0.63  -2.42   -14.394834    0      4      
iter:  13  20:11:45  -1.23  -2.61   -14.395844    0      4      
iter:  14  20:11:52  -1.10  -2.66   -14.396508    0      5      
iter:  15  20:11:58  -1.70  -3.11   -14.396453    0      4      
iter:  16  20:12:04  -1.47  -3.19   -14.396911    0      3      
iter:  17  20:12:10  -2.12  -3.28   -14.397195    0      3      
iter:  18  20:12:16  -1.83  -3.25   -14.397416    0      3      
iter:  19  20:12:22  -2.47  -3.51   -14.397541    0      3      
iter:  20  20:12:28  -2.23  -3.75   -14.397592    0      2      
iter:  21  20:12:34  -2.80  -3.77   -14.397727    0      3      
iter:  22  20:12:39  -2.66  -4.12   -14.397270    0      2      
iter:  23  20:12:45  -3.06  -4.13   -14.397485    0      2      
iter:  24  20:12:50  -2.98  -4.16   -14.397578    0      1      
iter:  25  20:12:55  -3.36  -4.11   -14.397170    0      1      
iter:  26  20:13:00  -3.26  -3.92   -14.397603    0      2      
iter:  27  20:13:06  -3.66  -4.06   -14.397674    0      2      
iter:  28  20:13:11  -3.61  -4.29   -14.397716    0      2      
iter:  29  20:13:16  -4.00  -4.63   -14.397431    0      1      
iter:  30  20:13:21  -3.90  -4.64   -14.397690    0      1      
iter:  31  20:13:27  -4.29  -4.88   -14.397609    0      1      
iter:  32  20:13:32  -4.19  -5.12   -14.397605    0      1      
iter:  33  20:13:37  -4.59  -5.35   -14.397521    0      1      
iter:  34  20:13:42  -4.49  -5.27   -14.397529    0      1      
iter:  35  20:13:47  -4.88  -5.26   -14.397477    0      1      
iter:  36  20:13:52  -4.77  -4.96   -14.397491    0      1      
iter:  37  20:13:57  -5.16  -4.90   -14.397522    0      1      
iter:  38  20:14:02  -5.06  -4.96   -14.397552    0      1      
iter:  39  20:14:08  -5.45  -4.94   -14.397562    0      2      
iter:  40  20:14:13  -5.40  -4.89   -14.397313    0      1      
iter:  41  20:14:18  -5.69  -5.23   -14.397470    0      1      
iter:  42  20:14:23  -5.72  -5.24   -14.397565    0      1      
iter:  43  20:14:28  -5.99  -5.49   -14.397501    0      1      
iter:  44  20:14:33  -6.03  -5.51   -14.397445    0      1      
iter:  45  20:14:38  -6.25  -5.63   -14.397472    0      1      
iter:  46  20:14:43  -6.28  -5.62   -14.397492    0      1      
iter:  47  20:14:48  -6.52  -5.70   -14.397508    0      1      
iter:  48  20:14:53  -6.56  -6.00   -14.397490    0      1      
iter:  49  20:14:58  -6.80  -6.17   -14.397482    0      1      
iter:  50  20:15:03  -6.84  -6.11   -14.397487    0      1      
iter:  51  20:15:08  -7.07  -6.13   -14.397494    0      1      
iter:  52  20:15:14  -7.10  -6.45   -14.397493    0      1      
iter:  53  20:15:19  -7.36  -6.60   -14.397485    0      1      
iter:  54  20:15:24  -7.37  -6.54   -14.397489    0      1      
iter:  55  20:15:29  -7.62  -6.93   -14.397487    0      1      

Converged after 55 iterations.

Dipole moment: (-0.928572, 1.205552, 0.160563) |e|*Ang

Energy contributions relative to reference atoms: (reference = -412395.464894)

Kinetic:        +25.377005
Potential:      -20.740432
External:        +0.000000
XC:             -18.897081
Entropy (-ST):   +0.000000
Local:           -0.136979
--------------------------
Free energy:    -14.397487
Extrapolated:   -14.397487

Fermi level: -4.90906

 Band  Eigenvalues  Occupancy
    0    -64.95587    2.00000
    1    -34.34243    2.00000
    2    -34.20301    2.00000
    3    -34.15713    2.00000
    4    -15.78577    2.00000
    5    -12.32185    2.00000
    6     -6.62689    2.00000
    7     -5.62311    2.00000
    8     -5.42251    2.00000
    9     -5.06278    2.00000
   10     -4.90906    1.00000
   11     -3.47610    0.00000
   12     -2.99109    0.00000
   13     -1.24829    0.00000
   14     -0.57042    0.00000
   15      0.66949    0.00000
   16      0.94772    0.00000
   17      1.66178    0.00000
   18      2.28607    0.00000
   19      2.62769    0.00000
   20      3.17577    0.00000

Writing to 3_57799_P1_PBE_zy0_14.gpw (mode='all')

Timing:                              incl.     excl.
-----------------------------------------------------------
Hamiltonian:                         8.901     0.000   0.0% |
 Atomic:                             0.196     0.001   0.0% |
  XC Correction:                     0.196     0.196   0.1% |
 Calculate atomic Hamiltonians:      0.009     0.009   0.0% |
 Communicate:                        0.000     0.000   0.0% |
 Hartree integrate/restrict:         0.035     0.035   0.0% |
 Initialize Hamiltonian:             0.000     0.000   0.0% |
 Poisson:                            6.471     6.471   2.0% ||
 XC 3D grid:                         2.178     2.178   0.7% |
 vbar:                               0.011     0.011   0.0% |
LCAO initialization:                 0.808     0.559   0.2% |
 LCAO eigensolver:                   0.076     0.000   0.0% |
  Calculate projections:             0.000     0.000   0.0% |
  DenseAtomicCorrection:             0.000     0.000   0.0% |
  Distribute overlap matrix:         0.000     0.000   0.0% |
  Orbital Layouts:                   0.000     0.000   0.0% |
  Potential matrix:                  0.075     0.075   0.0% |
 LCAO to grid:                       0.170     0.170   0.1% |
 Set positions (LCAO WFS):           0.004     0.000   0.0% |
  Basic WFS set positions:           0.000     0.000   0.0% |
  Basis functions set positions:     0.000     0.000   0.0% |
  TCI: Calculate S, T, P:            0.003     0.003   0.0% |
SCF-cycle:                         306.741     0.022   0.0% |
 Davidson:                         116.587    21.100   6.6% |--|
  Apply hamiltonian:                 8.947     8.947   2.8% ||
  Subspace diag:                    33.316     0.005   0.0% |
   calc_h_matrix:                   16.388     7.469   2.4% ||
    Apply hamiltonian:               8.919     8.919   2.8% ||
   diagonalize:                      0.012     0.012   0.0% |
   rotate_psi:                      16.910    16.910   5.3% |-|
  calc. matrices:                   36.348    27.419   8.6% |--|
   Apply hamiltonian:                8.929     8.929   2.8% ||
  diagonalize:                       0.045     0.045   0.0% |
  rotate_psi:                       16.832    16.832   5.3% |-|
 Density:                            4.223     0.001   0.0% |
  Atomic density matrices:           0.036     0.036   0.0% |
  Mix:                               3.029     3.029   1.0% |
  Multipole moments:                 0.009     0.009   0.0% |
  Pseudo density:                    1.147     1.146   0.4% |
   Symmetrize density:               0.001     0.001   0.0% |
 Hamiltonian:                      185.708     0.006   0.0% |
  Atomic:                           10.253     0.045   0.0% |
   XC Correction:                   10.208    10.208   3.2% ||
  Calculate atomic Hamiltonians:     0.453     0.453   0.1% |
  Communicate:                       0.000     0.000   0.0% |
  Hartree integrate/restrict:        1.784     1.784   0.6% |
  Poisson:                          58.908    58.908  18.5% |------|
  XC 3D grid:                      113.971   113.971  35.9% |-------------|
  vbar:                              0.332     0.332   0.1% |
 Orthonormalize:                     0.202     0.000   0.0% |
  calc_s_matrix:                     0.073     0.073   0.0% |
  inverse-cholesky:                  0.000     0.000   0.0% |
  projections:                       0.028     0.028   0.0% |
  rotate_psi_s:                      0.100     0.100   0.0% |
Set symmetry:                        0.001     0.001   0.0% |
Other:                               1.135     1.135   0.4% |
-----------------------------------------------------------
Total:                                       317.586 100.0%

Memory usage: 604.43 MiB
Date: Mon Aug 20 20:15:29 2018
