
  ___ ___ ___ _ _ _  
 |   |   |_  | | | | 
 | | | | | . | | | | 
 |__ |  _|___|_____|  1.4.0
 |___|_|             

User:   ???@3fe09ff0504a
Date:   Mon Aug 20 22:03:27 2018
Arch:   x86_64
Pid:    1882
Python: 3.7.0
gpaw:   /app/gpaw/software/venv/lib/python3.7/site-packages/gpaw
_gpaw:  /app/gpaw/software/venv/lib/python3.7/site-packages/
        _gpaw.cpython-37m-x86_64-linux-gnu.so
ase:    /app/gpaw/software/venv/lib/python3.7/site-packages/ase (version 3.16.2)
numpy:  /app/gpaw/software/venv/lib/python3.7/site-packages/numpy (version 1.15.0)
scipy:  /app/gpaw/software/venv/lib/python3.7/site-packages/scipy (version 1.1.0)
units:  Angstrom and eV
cores:  1

Input parameters:
  gpts: [72 64 72]
  maxiter: 150
  mixer: {backend: pulay,
          beta: None,
          method: separate,
          nmaxold: None,
          weight: None}
  xc: PBE

System changes: positions, numbers, cell, pbc, initial_charges, initial_magmoms 

Initialize ...

Hf-setup:
  name: Hafnium
  id: d03a45b6fa1dd7f07e443d1513edf499
  Z: 72
  valence: 12
  core: 60
  charge: 0.0
  file: /app/gpaw/datasets/Hf.PBE
  cutoffs: 1.30(comp), 2.36(filt), 4.02(core), lmax=2
  valence states:
                energy  radius
    5s(2.00)   -66.831   1.397
    6s(2.00)    -5.097   1.397
    5p(6.00)   -35.599   1.307
    6p(0.00)    -1.401   1.307
    5d(2.00)    -2.699   1.334
    *d          24.513   1.334

  Using partial waves for Hf as LCAO basis

N-setup:
  name: Nitrogen
  id: 45c8c9c739e7b131496b9fd2deb94bff
  Z: 7
  valence: 5
  core: 2
  charge: 0.0
  file: /app/gpaw/datasets/N.PBE
  cutoffs: 0.58(comp), 1.11(filt), 0.96(core), lmax=2
  valence states:
                energy  radius
    2s(2.00)   -18.583   0.603
    2p(3.00)    -7.089   0.529
    *s           8.629   0.603
    *p          20.123   0.529
    *d           0.000   0.577

  Using partial waves for N as LCAO basis

C-setup:
  name: Carbon
  id: 2f012631b351e3618121587a96c50fca
  Z: 6
  valence: 4
  core: 2
  charge: 0.0
  file: /app/gpaw/datasets/C.PBE
  cutoffs: 0.64(comp), 1.14(filt), 1.14(core), lmax=2
  valence states:
                energy  radius
    2s(2.00)   -13.751   0.635
    2p(2.00)    -5.285   0.635
    *s          13.461   0.635
    *p          21.927   0.635
    *d           0.000   0.635

  Using partial waves for C as LCAO basis

Reference energy: -412395.464894

Spin-paired calculation

Occupation numbers:
  Fermi-Dirac: width=0.0000 eV

Convergence criteria:
  Maximum total energy change: 0.0005 eV / electron
  Maximum integral of absolute density change: 0.0001 electrons
  Maximum integral of absolute eigenstate change: 4e-08 eV^2
  Maximum number of iterations: 150

Symmetries present (total): 1

  ( 1  0  0)
  ( 0  1  0)
  ( 0  0  1)

1 k-point (Gamma)
1 k-point in the irreducible part of the Brillouin zone
       k-points in crystal coordinates                weights
   0:     0.00000000    0.00000000    0.00000000          1/1

Wave functions: Uniform real-space grid
  Kinetic energy operator: 6*3+1=19 point O(h^6) finite-difference Laplacian
  ScaLapack parameters: grid=1x1, blocksize=None 

Eigensolver
   Davidson(niter=1, smin=None, normalize=True) 

Densities:
  Coarse grid: 72*64*72 grid
  Fine grid: 144*128*144 grid
  Total Charge: 0.000000 

Density mixing:
  Method: separate
  Backend: pulay
  Linear mixing parameter: 0.25
  Mixing with 3 old densities
  No damping of long wave oscillations 

Hamiltonian:
  XC and Coulomb potentials evaluated on a 144*128*144 grid
  Using the PBE Exchange-Correlation functional
  Interpolation: tri-quintic (5. degree polynomial)
  Poisson solver: Jacobi solver with 5 multi-grid levels
    Coarsest grid: 9 x 8 x 9 points
    Stencil: 6*3+1=19 point O(h^6) finite-difference Laplacian
    Max iterations: 1000
    Tolerance: 2.000000e-10 

Memory estimate:
  Process memory now: 642.37 MiB
  Calculator: 325.36 MiB
    Density: 113.90 MiB
      Arrays: 64.29 MiB
      Localized functions: 35.07 MiB
      Mixer: 14.54 MiB
    Hamiltonian: 92.51 MiB
      Arrays: 42.05 MiB
      XC: 0.00 MiB
      Poisson: 48.10 MiB
      vbar: 2.35 MiB
    Wavefunctions: 118.96 MiB
      Arrays psit_nG: 50.88 MiB
      Eigensolver: 63.03 MiB
      Projections: 0.01 MiB
      Projectors: 5.04 MiB

Total number of cores used: 1

Number of atoms: 3
Number of atomic orbitals: 21
Number of bands in calculation: 21
Bands to converge: occupied states only
Number of valence electrons: 21

... initialized

Initializing position-dependent things.

Density initialized from atomic densities
Creating initial wave functions:
  21 bands from LCAO basis set

      .--------------------.  
     /|                    |  
    / |                    |  
   /  |                    |  
  /   |                    |  
 *    |                    |  
 |    |                    |  
 |    |     Hf   C         |  
 |    |    N               |  
 |    |                    |  
 |    .--------------------.  
 |   /                    /   
 |  /                    /    
 | /                    /     
 |/                    /      
 *--------------------*       

Positions:
   0 Hf     3.350050    4.891250    4.425000    ( 0.0000,  0.0000,  0.0000)
   1 N      3.350050    3.108750    4.075000    ( 0.0000,  0.0000,  0.0000)
   2 C      5.149950    4.891250    4.075000    ( 0.0000,  0.0000,  0.0000)

Unit cell:
           periodic     x           y           z      points  spacing
  1. axis:    no     8.500000    0.000000    0.000000    72     0.1181
  2. axis:    no     0.000000    8.000000    0.000000    64     0.1250
  3. axis:    no     0.000000    0.000000    8.500000    72     0.1181

  Lengths:   8.500000   8.000000   8.500000
  Angles:   90.000000  90.000000  90.000000

Effective grid spacing dv^(1/3) = 0.1203

                     log10-error:    total        iterations:
           time      wfs    density  energy       fermi  poisson
iter:   1  22:03:40  +2.41   +inf   -18.832558    0      15     
iter:   2  22:03:42  +1.13   +inf   -19.373624    0             
iter:   3  22:03:45  +0.58   +inf   -19.547511    0             
iter:   4  22:03:54  +0.60  -0.70   -16.617430    0      11     
iter:   5  22:04:02  +0.88  -0.77   -15.413921    0      9      
iter:   6  22:04:11  +0.51  -0.97   -14.661114    0      9      
iter:   7  22:04:19  +0.21  -1.18   -14.508315    0      9      
iter:   8  22:04:27  +0.45  -1.17   -14.545842    0      7      
iter:   9  22:04:35  -0.39  -1.41   -14.528975    0      8      
iter:  10  22:04:42  +0.17  -1.75   -14.534895    0      6      
iter:  11  22:04:50  -0.90  -1.92   -14.532004    0      6      
iter:  12  22:04:58  -0.79  -2.24   -14.532123    0      5      
iter:  13  22:05:05  -1.22  -2.43   -14.536185    0      5      
iter:  14  22:05:11  -1.16  -1.36   -14.534064    0      4      
iter:  15  22:05:17  -1.59  -2.49   -14.534423    0      3      
iter:  16  22:05:23  -1.52  -2.42   -14.534899    0      4      
iter:  17  22:05:30  -1.92  -2.55   -14.534946    0      4      
iter:  18  22:05:36  -1.84  -2.52   -14.536489    0      4      
iter:  19  22:05:43  -2.16  -1.25   -14.535686    0      4      
iter:  20  22:05:49  -2.17  -2.30   -14.535490    0      4      
iter:  21  22:05:55  -2.34  -2.57   -14.536307    0      4      
iter:  22  22:06:02  -2.34  -2.04   -14.535349    0      4      
iter:  23  22:06:08  -2.77  -2.41   -14.535606    0      3      
iter:  24  22:06:14  -2.96  -1.71   -14.535535    0      3      
iter:  25  22:06:19  -3.42  -2.82   -14.535503    0      2      
iter:  26  22:06:25  -3.44  -2.73   -14.535611    0      3      
iter:  27  22:06:31  -3.48  -2.39   -14.535370    0      4      
iter:  28  22:06:37  -3.49  -1.94   -14.535575    0      3      
iter:  29  22:06:43  -4.14  -2.36   -14.535450    0      3      
iter:  30  22:06:49  -4.40  -2.48   -14.535412    0      3      
iter:  31  22:06:55  -4.36  -2.23   -14.536876    0      4      
iter:  32  22:07:02  -3.87  -1.24   -14.535472    0      4      
iter:  33  22:07:08  -3.92  -2.75   -14.535538    0      3      
iter:  34  22:07:14  -4.07  -2.75   -14.535785    0      4      
iter:  35  22:07:20  -3.79  -1.89   -14.535375    0      4      
iter:  36  22:07:26  -4.20  -2.22   -14.535509    0      3      
iter:  37  22:07:32  -5.10  -2.52   -14.535420    0      3      
iter:  38  22:07:38  -4.98  -2.53   -14.535365    0      3      
iter:  39  22:07:45  -4.72  -1.78   -14.539459    0      4      
iter:  40  22:07:51  -3.99  -1.25   -14.535492    0      4      
iter:  41  22:07:57  -4.10  -2.58   -14.535474    0      3      
iter:  42  22:08:03  -3.99  -2.76   -14.535627    0      4      
iter:  43  22:08:10  -3.48  -2.15   -14.535362    0      4      
iter:  44  22:08:17  -3.83  -2.90   -14.547979    0      5      
iter:  45  22:08:23  -3.55  -1.23   -14.535458    0      5      
iter:  46  22:08:29  -3.73  -2.65   -14.535670    0      3      
iter:  47  22:08:35  -3.92  -1.48   -14.535443    0      3      
iter:  48  22:08:41  -3.58  -2.88   -14.535402    0      3      
iter:  49  22:08:47  -4.78  -3.07   -14.535502    0      3      
iter:  50  22:08:53  -4.26  -1.71   -14.536922    0      3      
iter:  51  22:08:59  -4.22  -1.25   -14.535452    0      3      
iter:  52  22:09:05  -4.79  -3.06   -14.535382    0      2      
iter:  53  22:09:10  -4.86  -3.06   -14.535391    0      2      
iter:  54  22:09:16  -5.00  -2.86   -14.536924    0      3      
iter:  55  22:09:22  -4.64  -1.24   -14.535468    0      3      
iter:  56  22:09:28  -4.79  -2.74   -14.535408    0      3      
iter:  57  22:09:34  -4.52  -3.01   -14.535405    0      3      
iter:  58  22:09:40  -4.65  -2.82   -14.536904    0      3      
iter:  59  22:09:47  -4.60  -1.24   -14.535537    0      4      
iter:  60  22:09:53  -4.09  -2.03   -14.535426    0      3      
iter:  61  22:09:59  -3.83  -2.95   -14.535456    0      3      
iter:  62  22:10:05  -4.06  -2.82   -14.536546    0      3      
iter:  63  22:10:11  -4.62  -1.24   -14.535791    0      4      
iter:  64  22:10:17  -4.43  -1.65   -14.535599    0      4      
iter:  65  22:10:24  -3.52  -1.82   -14.535686    0      4      
iter:  66  22:10:30  -3.12  -2.25   -14.535613    0      4      
iter:  67  22:10:36  -3.54  -2.15   -14.535498    0      3      
iter:  68  22:10:42  -4.50  -2.93   -14.535390    0      4      
iter:  69  22:10:48  -4.34  -1.86   -14.535563    0      3      
iter:  70  22:10:55  -3.76  -2.56   -14.535703    0      4      
iter:  71  22:11:01  -3.68  -1.40   -14.535608    0      3      
iter:  72  22:11:07  -3.51  -2.58   -14.538859    0      4      
iter:  73  22:11:13  -3.59  -1.31   -14.535969    0      4      
iter:  74  22:11:20  -2.98  -2.51   -14.535782    0      4      
iter:  75  22:11:26  -3.38  -1.90   -14.537184    0      4      
iter:  76  22:11:32  -2.52  -1.27   -14.536289    0      3      
iter:  77  22:11:39  -3.14  -2.37   -14.537547    0      5      
iter:  78  22:11:45  -2.52  -2.14   -14.538971    0      4      
iter:  79  22:11:52  -3.05  -1.46   -14.535806    0      4      
iter:  80  22:11:59  -3.01  -2.18   -14.539850    0      5      
iter:  81  22:12:05  -2.09  -1.26   -14.535599    0      5      
iter:  82  22:12:11  -3.25  -2.65   -14.535589    0      3      
iter:  83  22:12:17  -3.32  -2.81   -14.535562    0      2      
iter:  84  22:12:23  -3.87  -2.81   -14.535370    0      4      
iter:  85  22:12:30  -3.82  -2.63   -14.541077    0      4      
iter:  86  22:12:36  -3.17  -1.24   -14.535692    0      4      
iter:  87  22:12:42  -3.54  -2.83   -14.535529    0      3      
iter:  88  22:12:48  -3.81  -2.80   -14.535533    0      3      
iter:  89  22:12:54  -4.10  -2.71   -14.535379    0      4      
iter:  90  22:13:00  -4.69  -2.73   -14.535370    0      3      
iter:  91  22:13:07  -3.99  -2.13   -14.537742    0      4      
iter:  92  22:13:13  -3.90  -1.24   -14.535472    0      4      
iter:  93  22:13:19  -4.70  -2.94   -14.535389    0      2      
iter:  94  22:13:25  -4.79  -2.96   -14.535579    0      3      
iter:  95  22:13:31  -4.45  -1.90   -14.535481    0      4      
iter:  96  22:13:37  -4.46  -1.63   -14.535469    0      3      
iter:  97  22:13:42  -5.16  -2.87   -14.535413    0      2      
iter:  98  22:13:48  -5.15  -2.86   -14.535417    0      3      
iter:  99  22:13:54  -5.14  -1.98   -14.536379    0      3      
iter: 100  22:14:01  -4.44  -1.26   -14.535455    0      4      
iter: 101  22:14:07  -4.28  -2.88   -14.535441    0      3      
iter: 102  22:14:13  -4.48  -2.92   -14.535424    0      3      
iter: 103  22:14:19  -4.84  -2.78   -14.535778    0      4      
iter: 104  22:14:25  -4.45  -1.24   -14.535534    0      4      
iter: 105  22:14:31  -3.88  -2.15   -14.535434    0      3      
iter: 106  22:14:37  -4.14  -2.93   -14.535454    0      3      
iter: 107  22:14:44  -4.55  -2.82   -14.535519    0      4      
iter: 108  22:14:50  -4.04  -1.37   -14.536190    0      4      
iter: 109  22:14:56  -3.94  -1.45   -14.535557    0      4      
iter: 110  22:15:03  -3.48  -2.73   -14.535677    0      4      
iter: 111  22:15:09  -3.29  -2.60   -14.535719    0      4      
iter: 112  22:15:15  -4.63  -1.56   -14.535478    0      3      
iter: 113  22:15:21  -3.90  -1.92   -14.536387    0      4      
iter: 114  22:15:28  -2.83  -2.31   -14.536352    0      5      
iter: 115  22:15:35  -2.33  -2.28   -14.535407    0      4      
iter: 116  22:15:41  -3.67  -2.44   -14.536313    0      4      
iter: 117  22:15:47  -3.68  -2.02   -14.535435    0      4      
iter: 118  22:15:54  -3.74  -2.20   -14.535893    0      4      
iter: 119  22:16:01  -3.40  -1.32   -14.544722    0      5      
iter: 120  22:16:07  -2.67  -1.27   -14.536433    0      5      
iter: 121  22:16:14  -3.13  -2.16   -14.536579    0      4      
iter: 122  22:16:21  -2.58  -1.85   -14.540309    0      5      
iter: 123  22:16:27  -1.99  -1.75   -14.535534    0      5      
iter: 124  22:16:34  -3.17  -2.63   -14.535665    0      4      
iter: 125  22:16:40  -2.65  -2.59   -14.535454    0      3      
iter: 126  22:16:46  -3.81  -2.42   -14.535523    0      4      
iter: 127  22:16:52  -3.68  -2.09   -14.535418    0      3      
iter: 128  22:16:58  -3.83  -2.41   -14.535355    0      3      
iter: 129  22:17:04  -4.01  -2.33   -14.535422    0      3      
iter: 130  22:17:10  -4.66  -2.49   -14.539206    0      4      
iter: 131  22:17:17  -4.24  -1.23   -14.535461    0      4      
iter: 132  22:17:23  -3.90  -2.41   -14.538079    0      4      
iter: 133  22:17:29  -2.91  -1.42   -14.535617    0      4      
iter: 134  22:17:35  -2.83  -2.16   -14.535395    0      3      
iter: 135  22:17:42  -3.79  -2.42   -14.537298    0      4      
iter: 136  22:17:48  -2.89  -1.37   -14.536017    0      4      
iter: 137  22:17:55  -3.58  -2.10   -14.535547    0      4      
iter: 138  22:18:01  -2.89  -1.93   -14.556762    0      5      
iter: 139  22:18:08  -1.94  -1.24   -14.540304    0      5      
iter: 140  22:18:15  -2.60  -1.73   -14.539039    0      5      
iter: 141  22:18:22  -1.90  -1.96   -14.554853    0      6      
iter: 142  22:18:29  -1.82  -1.36   -14.538357    0      5      
iter: 143  22:18:36  -2.92  -1.93   -14.535846    0      5      
iter: 144  22:18:42  -3.17  -2.50   -14.535988    0      4      
iter: 145  22:18:49  -2.57  -2.49   -14.535449    0      4      
iter: 146  22:18:54  -3.73  -2.18   -14.535494    0      3      
iter: 147  22:19:00  -4.04  -2.37   -14.535378    0      3      
iter: 148  22:19:07  -4.07  -2.76   -14.535533    0      4      
iter: 149  22:19:14  -3.97  -2.75   -14.547999    0      5      
iter: 150  22:19:20  -3.25  -1.23   -14.536167    0      5      

Did not converge!

Here are some tips:

1) Make sure the geometry and spin-state is physically sound.
2) Use less aggressive density mixing.
3) Solve the eigenvalue problem more accurately at each scf-step.
4) Use a smoother distribution function for the occupation numbers.
5) Try adding more empty states.
6) Use enough k-points.
7) Don't let your structure optimization algorithm take too large steps.
8) Solve the Poisson equation more accurately.
9) Better initial guess for the wave functions.

See details here:

    https://wiki.fysik.dtu.dk/gpaw/documentation/convergence.html


Timing:                              incl.     excl.
-----------------------------------------------------------
Hamiltonian:                         8.905     0.000   0.0% |
 Atomic:                             0.197     0.001   0.0% |
  XC Correction:                     0.196     0.196   0.0% |
 Calculate atomic Hamiltonians:      0.009     0.009   0.0% |
 Communicate:                        0.000     0.000   0.0% |
 Hartree integrate/restrict:         0.035     0.035   0.0% |
 Initialize Hamiltonian:             0.000     0.000   0.0% |
 Poisson:                            6.476     6.476   0.7% |
 XC 3D grid:                         2.177     2.177   0.2% |
 vbar:                               0.011     0.011   0.0% |
LCAO initialization:                 0.846     0.556   0.1% |
 LCAO eigensolver:                   0.076     0.000   0.0% |
  Calculate projections:             0.000     0.000   0.0% |
  DenseAtomicCorrection:             0.000     0.000   0.0% |
  Distribute overlap matrix:         0.000     0.000   0.0% |
  Orbital Layouts:                   0.000     0.000   0.0% |
  Potential matrix:                  0.075     0.075   0.0% |
 LCAO to grid:                       0.211     0.211   0.0% |
 Set positions (LCAO WFS):           0.004     0.000   0.0% |
  Basic WFS set positions:           0.000     0.000   0.0% |
  Basis functions set positions:     0.000     0.000   0.0% |
  TCI: Calculate S, T, P:            0.003     0.003   0.0% |
SCF-cycle:                         947.068     0.056   0.0% |
 Davidson:                         319.355    58.283   6.1% |-|
  Apply hamiltonian:                24.573    24.573   2.6% ||
  Subspace diag:                    91.388     0.015   0.0% |
   calc_h_matrix:                   45.115    20.513   2.1% ||
    Apply hamiltonian:              24.602    24.602   2.6% ||
   diagonalize:                      0.035     0.035   0.0% |
   rotate_psi:                      46.224    46.224   4.8% |-|
  calc. matrices:                   99.106    74.644   7.8% |--|
   Apply hamiltonian:               24.462    24.462   2.6% ||
  diagonalize:                       0.121     0.121   0.0% |
  rotate_psi:                       45.883    45.883   4.8% |-|
 Density:                           12.317     0.003   0.0% |
  Atomic density matrices:           0.104     0.104   0.0% |
  Mix:                               8.805     8.805   0.9% |
  Multipole moments:                 0.027     0.027   0.0% |
  Pseudo density:                    3.379     3.376   0.4% |
   Symmetrize density:               0.003     0.003   0.0% |
 Hamiltonian:                      615.099     0.017   0.0% |
  Atomic:                           29.354     0.130   0.0% |
   XC Correction:                   29.224    29.224   3.1% ||
  Calculate atomic Hamiltonians:     1.296     1.296   0.1% |
  Communicate:                       0.001     0.001   0.0% |
  Hartree integrate/restrict:        5.168     5.168   0.5% |
  Poisson:                         253.620   253.620  26.5% |----------|
  XC 3D grid:                      324.699   324.699  33.9% |-------------|
  vbar:                              0.943     0.943   0.1% |
 Orthonormalize:                     0.242     0.000   0.0% |
  calc_s_matrix:                     0.091     0.091   0.0% |
  inverse-cholesky:                  0.000     0.000   0.0% |
  projections:                       0.040     0.040   0.0% |
  rotate_psi_s:                      0.110     0.110   0.0% |
Set symmetry:                        0.001     0.001   0.0% |
Other:                               1.103     1.103   0.1% |
-----------------------------------------------------------
Total:                                       957.924 100.0%

Memory usage: 642.37 MiB
Date: Mon Aug 20 22:19:25 2018
