
  ___ ___ ___ _ _ _  
 |   |   |_  | | | | 
 | | | | | . | | | | 
 |__ |  _|___|_____|  1.4.0
 |___|_|             

User:   ???@3fe09ff0504a
Date:   Mon Aug 20 20:54:22 2018
Arch:   x86_64
Pid:    1882
Python: 3.7.0
gpaw:   /app/gpaw/software/venv/lib/python3.7/site-packages/gpaw
_gpaw:  /app/gpaw/software/venv/lib/python3.7/site-packages/
        _gpaw.cpython-37m-x86_64-linux-gnu.so
ase:    /app/gpaw/software/venv/lib/python3.7/site-packages/ase (version 3.16.2)
numpy:  /app/gpaw/software/venv/lib/python3.7/site-packages/numpy (version 1.15.0)
scipy:  /app/gpaw/software/venv/lib/python3.7/site-packages/scipy (version 1.1.0)
units:  Angstrom and eV
cores:  1

Input parameters:
  gpts: [72 64 72]
  maxiter: 150
  mixer: {backend: pulay,
          beta: None,
          method: separate,
          nmaxold: None,
          weight: None}
  xc: PBE

System changes: positions, numbers, cell, pbc, initial_charges, initial_magmoms 

Initialize ...

Hf-setup:
  name: Hafnium
  id: d03a45b6fa1dd7f07e443d1513edf499
  Z: 72
  valence: 12
  core: 60
  charge: 0.0
  file: /app/gpaw/datasets/Hf.PBE
  cutoffs: 1.30(comp), 2.36(filt), 4.02(core), lmax=2
  valence states:
                energy  radius
    5s(2.00)   -66.831   1.397
    6s(2.00)    -5.097   1.397
    5p(6.00)   -35.599   1.307
    6p(0.00)    -1.401   1.307
    5d(2.00)    -2.699   1.334
    *d          24.513   1.334

  Using partial waves for Hf as LCAO basis

N-setup:
  name: Nitrogen
  id: 45c8c9c739e7b131496b9fd2deb94bff
  Z: 7
  valence: 5
  core: 2
  charge: 0.0
  file: /app/gpaw/datasets/N.PBE
  cutoffs: 0.58(comp), 1.11(filt), 0.96(core), lmax=2
  valence states:
                energy  radius
    2s(2.00)   -18.583   0.603
    2p(3.00)    -7.089   0.529
    *s           8.629   0.603
    *p          20.123   0.529
    *d           0.000   0.577

  Using partial waves for N as LCAO basis

C-setup:
  name: Carbon
  id: 2f012631b351e3618121587a96c50fca
  Z: 6
  valence: 4
  core: 2
  charge: 0.0
  file: /app/gpaw/datasets/C.PBE
  cutoffs: 0.64(comp), 1.14(filt), 1.14(core), lmax=2
  valence states:
                energy  radius
    2s(2.00)   -13.751   0.635
    2p(2.00)    -5.285   0.635
    *s          13.461   0.635
    *p          21.927   0.635
    *d           0.000   0.635

  Using partial waves for C as LCAO basis

Reference energy: -412395.464894

Spin-paired calculation

Occupation numbers:
  Fermi-Dirac: width=0.0000 eV

Convergence criteria:
  Maximum total energy change: 0.0005 eV / electron
  Maximum integral of absolute density change: 0.0001 electrons
  Maximum integral of absolute eigenstate change: 4e-08 eV^2
  Maximum number of iterations: 150

Symmetries present (total): 1

  ( 1  0  0)
  ( 0  1  0)
  ( 0  0  1)

1 k-point (Gamma)
1 k-point in the irreducible part of the Brillouin zone
       k-points in crystal coordinates                weights
   0:     0.00000000    0.00000000    0.00000000          1/1

Wave functions: Uniform real-space grid
  Kinetic energy operator: 6*3+1=19 point O(h^6) finite-difference Laplacian
  ScaLapack parameters: grid=1x1, blocksize=None 

Eigensolver
   Davidson(niter=1, smin=None, normalize=True) 

Densities:
  Coarse grid: 72*64*72 grid
  Fine grid: 144*128*144 grid
  Total Charge: 0.000000 

Density mixing:
  Method: separate
  Backend: pulay
  Linear mixing parameter: 0.25
  Mixing with 3 old densities
  No damping of long wave oscillations 

Hamiltonian:
  XC and Coulomb potentials evaluated on a 144*128*144 grid
  Using the PBE Exchange-Correlation functional
  Interpolation: tri-quintic (5. degree polynomial)
  Poisson solver: Jacobi solver with 5 multi-grid levels
    Coarsest grid: 9 x 8 x 9 points
    Stencil: 6*3+1=19 point O(h^6) finite-difference Laplacian
    Max iterations: 1000
    Tolerance: 2.000000e-10 

Memory estimate:
  Process memory now: 631.14 MiB
  Calculator: 325.36 MiB
    Density: 113.90 MiB
      Arrays: 64.29 MiB
      Localized functions: 35.07 MiB
      Mixer: 14.54 MiB
    Hamiltonian: 92.51 MiB
      Arrays: 42.05 MiB
      XC: 0.00 MiB
      Poisson: 48.10 MiB
      vbar: 2.35 MiB
    Wavefunctions: 118.96 MiB
      Arrays psit_nG: 50.88 MiB
      Eigensolver: 63.03 MiB
      Projections: 0.01 MiB
      Projectors: 5.04 MiB

Total number of cores used: 1

Number of atoms: 3
Number of atomic orbitals: 21
Number of bands in calculation: 21
Bands to converge: occupied states only
Number of valence electrons: 21

... initialized

Initializing position-dependent things.

Density initialized from atomic densities
Creating initial wave functions:
  21 bands from LCAO basis set

      .--------------------.  
     /|                    |  
    / |                    |  
   /  |                    |  
  /   |                    |  
 *    |                    |  
 |    |                    |  
 |    |     Hf   C         |  
 |    |    N               |  
 |    |                    |  
 |    .--------------------.  
 |   /                    /   
 |  /                    /    
 | /                    /     
 |/                    /      
 *--------------------*       

Positions:
   0 Hf     3.350050    4.891250    4.360000    ( 0.0000,  0.0000,  0.0000)
   1 N      3.350050    3.108750    4.140000    ( 0.0000,  0.0000,  0.0000)
   2 C      5.149950    4.891250    4.140000    ( 0.0000,  0.0000,  0.0000)

Unit cell:
           periodic     x           y           z      points  spacing
  1. axis:    no     8.500000    0.000000    0.000000    72     0.1181
  2. axis:    no     0.000000    8.000000    0.000000    64     0.1250
  3. axis:    no     0.000000    0.000000    8.500000    72     0.1181

  Lengths:   8.500000   8.000000   8.500000
  Angles:   90.000000  90.000000  90.000000

Effective grid spacing dv^(1/3) = 0.1203

                     log10-error:    total        iterations:
           time      wfs    density  energy       fermi  poisson
iter:   1  20:54:35  +2.41   +inf   -18.680741    0      15     
iter:   2  20:54:37  +1.15   +inf   -19.253512    0             
iter:   3  20:54:39  +0.59   +inf   -19.437607    0             
iter:   4  20:54:49  +0.61  -0.70   -16.479399    0      11     
iter:   5  20:54:57  +0.84  -0.77   -15.320395    0      9      
iter:   6  20:55:06  +0.52  -0.97   -14.550630    0      9      
iter:   7  20:55:15  +0.19  -1.19   -14.406585    0      9      
iter:   8  20:55:23  +0.49  -1.49   -14.427349    0      8      
iter:   9  20:55:31  -0.23  -1.68   -14.432561    0      7      
iter:  10  20:55:38  +0.10  -1.97   -14.436488    0      5      
iter:  11  20:55:44  -0.78  -2.22   -14.438538    0      5      
iter:  12  20:55:51  -0.63  -2.41   -14.440058    0      4      
iter:  13  20:55:58  -1.23  -2.61   -14.441026    0      4      
iter:  14  20:56:04  -1.11  -2.67   -14.441647    0      5      
iter:  15  20:56:11  -1.69  -3.11   -14.441532    0      3      
iter:  16  20:56:17  -1.49  -3.19   -14.442130    0      4      
iter:  17  20:56:23  -2.09  -3.42   -14.442377    0      3      
iter:  18  20:56:29  -1.85  -3.43   -14.442518    0      3      
iter:  19  20:56:35  -2.44  -3.67   -14.442764    0      2      
iter:  20  20:56:40  -2.21  -3.63   -14.442589    0      2      
iter:  21  20:56:46  -2.75  -3.59   -14.442670    0      2      
iter:  22  20:56:52  -2.53  -3.45   -14.442763    0      2      
iter:  23  20:56:58  -3.05  -3.44   -14.442647    0      3      
iter:  24  20:57:04  -2.83  -3.44   -14.442742    0      3      
iter:  25  20:57:09  -3.36  -3.42   -14.442800    0      2      
iter:  26  20:57:16  -3.23  -3.45   -14.442862    0      3      
iter:  27  20:57:22  -3.71  -3.62   -14.442865    0      3      
iter:  28  20:57:27  -3.65  -3.96   -14.442677    0      2      
iter:  29  20:57:33  -4.03  -4.11   -14.442768    0      2      
iter:  30  20:57:38  -4.00  -4.28   -14.442628    0      2      
iter:  31  20:57:44  -4.32  -4.66   -14.442576    0      1      
iter:  32  20:57:49  -4.34  -4.73   -14.442640    0      1      
iter:  33  20:57:54  -4.60  -4.88   -14.442725    0      1      
iter:  34  20:57:59  -4.63  -5.00   -14.442701    0      1      
iter:  35  20:58:05  -4.88  -5.16   -14.442706    0      1      
iter:  36  20:58:10  -4.92  -5.13   -14.442618    0      1      
iter:  37  20:58:15  -5.15  -4.83   -14.442758    0      1      
iter:  38  20:58:20  -5.19  -5.03   -14.442733    0      1      
iter:  39  20:58:25  -5.48  -5.22   -14.442754    0      1      
iter:  40  20:58:31  -5.49  -5.58   -14.442666    0      1      
iter:  41  20:58:36  -5.75  -5.52   -14.442682    0      1      
iter:  42  20:58:41  -5.78  -5.71   -14.442677    0      1      
iter:  43  20:58:46  -6.03  -5.99   -14.442677    0      1      
iter:  44  20:58:51  -6.07  -6.23   -14.442677    0      1      
iter:  45  20:58:57  -6.30  -6.29   -14.442674    0      1      
iter:  46  20:59:02  -6.35  -6.30   -14.442671    0      1      
iter:  47  20:59:07  -6.56  -5.99   -14.442672    0      1      
iter:  48  20:59:12  -6.62  -6.03   -14.442669    0      1      
iter:  49  20:59:18  -6.82  -5.85   -14.442671    0      1      
iter:  50  20:59:23  -6.88  -5.77   -14.442675    0      1      
iter:  51  20:59:28  -7.09  -5.89   -14.442680    0      1      
iter:  52  20:59:33  -7.16  -6.15   -14.442681    0      1      
iter:  53  20:59:38  -7.38  -6.40   -14.442677    0      1      
iter:  54  20:59:43  -7.44  -6.62   -14.442673    0      1      

Converged after 54 iterations.

Dipole moment: (-0.926896, 1.207058, 0.252129) |e|*Ang

Energy contributions relative to reference atoms: (reference = -412395.464894)

Kinetic:        +23.864639
Potential:      -19.530287
External:        +0.000000
XC:             -18.632310
Entropy (-ST):   +0.000000
Local:           -0.144715
--------------------------
Free energy:    -14.442673
Extrapolated:   -14.442673

Fermi level: -4.92972

 Band  Eigenvalues  Occupancy
    0    -64.99589    2.00000
    1    -34.36458    2.00000
    2    -34.24231    2.00000
    3    -34.16811    2.00000
    4    -15.78344    2.00000
    5    -12.33468    2.00000
    6     -6.59417    2.00000
    7     -5.59983    2.00000
    8     -5.40941    2.00000
    9     -5.03776    2.00000
   10     -4.92972    1.00000
   11     -3.45996    0.00000
   12     -3.00523    0.00000
   13     -1.26441    0.00000
   14     -0.60475    0.00000
   15      0.60623    0.00000
   16      0.90231    0.00000
   17      1.60931    0.00000
   18      2.25101    0.00000
   19      2.58937    0.00000
   20      3.17353    0.00000

Writing to 3_57799_P1_PBE_zy0_2200.gpw (mode='all')

Timing:                              incl.     excl.
-----------------------------------------------------------
Hamiltonian:                         9.018     0.000   0.0% |
 Atomic:                             0.195     0.001   0.0% |
  XC Correction:                     0.194     0.194   0.1% |
 Calculate atomic Hamiltonians:      0.009     0.009   0.0% |
 Communicate:                        0.000     0.000   0.0% |
 Hartree integrate/restrict:         0.036     0.036   0.0% |
 Initialize Hamiltonian:             0.000     0.000   0.0% |
 Poisson:                            6.565     6.565   2.0% ||
 XC 3D grid:                         2.202     2.202   0.7% |
 vbar:                               0.011     0.011   0.0% |
LCAO initialization:                 0.780     0.530   0.2% |
 LCAO eigensolver:                   0.076     0.000   0.0% |
  Calculate projections:             0.000     0.000   0.0% |
  DenseAtomicCorrection:             0.000     0.000   0.0% |
  Distribute overlap matrix:         0.000     0.000   0.0% |
  Orbital Layouts:                   0.000     0.000   0.0% |
  Potential matrix:                  0.076     0.076   0.0% |
 LCAO to grid:                       0.170     0.170   0.1% |
 Set positions (LCAO WFS):           0.004     0.000   0.0% |
  Basic WFS set positions:           0.000     0.000   0.0% |
  Basis functions set positions:     0.000     0.000   0.0% |
  TCI: Calculate S, T, P:            0.003     0.003   0.0% |
SCF-cycle:                         311.060     0.021   0.0% |
 Davidson:                         119.152    21.310   6.6% |--|
  Apply hamiltonian:                 9.001     9.001   2.8% ||
  Subspace diag:                    33.600     0.005   0.0% |
   calc_h_matrix:                   16.784     7.877   2.4% ||
    Apply hamiltonian:               8.907     8.907   2.8% ||
   diagonalize:                      0.012     0.012   0.0% |
   rotate_psi:                      16.799    16.799   5.2% |-|
  calc. matrices:                   38.375    29.400   9.1% |---|
   Apply hamiltonian:                8.974     8.974   2.8% ||
  diagonalize:                       0.044     0.044   0.0% |
  rotate_psi:                       16.822    16.822   5.2% |-|
 Density:                            4.215     0.001   0.0% |
  Atomic density matrices:           0.035     0.035   0.0% |
  Mix:                               2.995     2.995   0.9% |
  Multipole moments:                 0.009     0.009   0.0% |
  Pseudo density:                    1.174     1.173   0.4% |
   Symmetrize density:               0.001     0.001   0.0% |
 Hamiltonian:                      187.469     0.006   0.0% |
  Atomic:                           10.048     0.045   0.0% |
   XC Correction:                   10.003    10.003   3.1% ||
  Calculate atomic Hamiltonians:     0.446     0.446   0.1% |
  Communicate:                       0.000     0.000   0.0% |
  Hartree integrate/restrict:        1.801     1.801   0.6% |
  Poisson:                          61.772    61.772  19.2% |-------|
  XC 3D grid:                      113.046   113.046  35.1% |-------------|
  vbar:                              0.349     0.349   0.1% |
 Orthonormalize:                     0.202     0.000   0.0% |
  calc_s_matrix:                     0.075     0.075   0.0% |
  inverse-cholesky:                  0.000     0.000   0.0% |
  projections:                       0.028     0.028   0.0% |
  rotate_psi_s:                      0.099     0.099   0.0% |
Set symmetry:                        0.001     0.001   0.0% |
Other:                               1.127     1.127   0.4% |
-----------------------------------------------------------
Total:                                       321.987 100.0%

Memory usage: 632.05 MiB
Date: Mon Aug 20 20:59:44 2018
