
  ___ ___ ___ _ _ _  
 |   |   |_  | | | | 
 | | | | | . | | | | 
 |__ |  _|___|_____|  1.4.0
 |___|_|             

User:   ???@3fe09ff0504a
Date:   Tue Aug 21 08:44:28 2018
Arch:   x86_64
Pid:    2456
Python: 3.7.0
gpaw:   /app/gpaw/software/venv/lib/python3.7/site-packages/gpaw
_gpaw:  /app/gpaw/software/venv/lib/python3.7/site-packages/
        _gpaw.cpython-37m-x86_64-linux-gnu.so
ase:    /app/gpaw/software/venv/lib/python3.7/site-packages/ase (version 3.16.2)
numpy:  /app/gpaw/software/venv/lib/python3.7/site-packages/numpy (version 1.15.0)
scipy:  /app/gpaw/software/venv/lib/python3.7/site-packages/scipy (version 1.1.0)
units:  Angstrom and eV
cores:  1

Input parameters:
  gpts: [72 64 72]
  maxiter: 150
  mixer: {backend: pulay,
          beta: None,
          method: separate,
          nmaxold: None,
          weight: None}
  xc: PBE

System changes: positions, numbers, cell, pbc, initial_charges, initial_magmoms 

Initialize ...

Hf-setup:
  name: Hafnium
  id: d03a45b6fa1dd7f07e443d1513edf499
  Z: 72
  valence: 12
  core: 60
  charge: 0.0
  file: /app/gpaw/datasets/Hf.PBE
  cutoffs: 1.30(comp), 2.36(filt), 4.02(core), lmax=2
  valence states:
                energy  radius
    5s(2.00)   -66.831   1.397
    6s(2.00)    -5.097   1.397
    5p(6.00)   -35.599   1.307
    6p(0.00)    -1.401   1.307
    5d(2.00)    -2.699   1.334
    *d          24.513   1.334

  Using partial waves for Hf as LCAO basis

N-setup:
  name: Nitrogen
  id: 45c8c9c739e7b131496b9fd2deb94bff
  Z: 7
  valence: 5
  core: 2
  charge: 0.0
  file: /app/gpaw/datasets/N.PBE
  cutoffs: 0.58(comp), 1.11(filt), 0.96(core), lmax=2
  valence states:
                energy  radius
    2s(2.00)   -18.583   0.603
    2p(3.00)    -7.089   0.529
    *s           8.629   0.603
    *p          20.123   0.529
    *d           0.000   0.577

  Using partial waves for N as LCAO basis

C-setup:
  name: Carbon
  id: 2f012631b351e3618121587a96c50fca
  Z: 6
  valence: 4
  core: 2
  charge: 0.0
  file: /app/gpaw/datasets/C.PBE
  cutoffs: 0.64(comp), 1.14(filt), 1.14(core), lmax=2
  valence states:
                energy  radius
    2s(2.00)   -13.751   0.635
    2p(2.00)    -5.285   0.635
    *s          13.461   0.635
    *p          21.927   0.635
    *d           0.000   0.635

  Using partial waves for C as LCAO basis

Reference energy: -412395.464894

Spin-paired calculation

Occupation numbers:
  Fermi-Dirac: width=0.0000 eV

Convergence criteria:
  Maximum total energy change: 0.0005 eV / electron
  Maximum integral of absolute density change: 0.0001 electrons
  Maximum integral of absolute eigenstate change: 4e-08 eV^2
  Maximum number of iterations: 150

Symmetries present (total): 1

  ( 1  0  0)
  ( 0  1  0)
  ( 0  0  1)

1 k-point (Gamma)
1 k-point in the irreducible part of the Brillouin zone
       k-points in crystal coordinates                weights
   0:     0.00000000    0.00000000    0.00000000          1/1

Wave functions: Uniform real-space grid
  Kinetic energy operator: 6*3+1=19 point O(h^6) finite-difference Laplacian
  ScaLapack parameters: grid=1x1, blocksize=None 

Eigensolver
   Davidson(niter=1, smin=None, normalize=True) 

Densities:
  Coarse grid: 72*64*72 grid
  Fine grid: 144*128*144 grid
  Total Charge: 0.000000 

Density mixing:
  Method: separate
  Backend: pulay
  Linear mixing parameter: 0.25
  Mixing with 3 old densities
  No damping of long wave oscillations 

Hamiltonian:
  XC and Coulomb potentials evaluated on a 144*128*144 grid
  Using the PBE Exchange-Correlation functional
  Interpolation: tri-quintic (5. degree polynomial)
  Poisson solver: Jacobi solver with 5 multi-grid levels
    Coarsest grid: 9 x 8 x 9 points
    Stencil: 6*3+1=19 point O(h^6) finite-difference Laplacian
    Max iterations: 1000
    Tolerance: 2.000000e-10 

Memory estimate:
  Process memory now: 41.54 MiB
  Calculator: 325.36 MiB
    Density: 113.90 MiB
      Arrays: 64.29 MiB
      Localized functions: 35.07 MiB
      Mixer: 14.54 MiB
    Hamiltonian: 92.51 MiB
      Arrays: 42.05 MiB
      XC: 0.00 MiB
      Poisson: 48.10 MiB
      vbar: 2.35 MiB
    Wavefunctions: 118.96 MiB
      Arrays psit_nG: 50.88 MiB
      Eigensolver: 63.03 MiB
      Projections: 0.01 MiB
      Projectors: 5.04 MiB

Total number of cores used: 1

Number of atoms: 3
Number of atomic orbitals: 21
Number of bands in calculation: 21
Bands to converge: occupied states only
Number of valence electrons: 21

... initialized

Initializing position-dependent things.

Density initialized from atomic densities
Creating initial wave functions:
  21 bands from LCAO basis set

      .--------------------.  
     /|                    |  
    / |                    |  
   /  |                    |  
  /   |                    |  
 *    |                    |  
 |    |                    |  
 |    |     Hf   C         |  
 |    |    N               |  
 |    |                    |  
 |    .--------------------.  
 |   /                    /   
 |  /                    /    
 | /                    /     
 |/                    /      
 *--------------------*       

Positions:
   0 Hf     3.350050    4.891250    4.300000    ( 0.0000,  0.0000,  0.0000)
   1 N      3.350050    3.108750    4.200000    ( 0.0000,  0.0000,  0.0000)
   2 C      5.149950    4.891250    4.200000    ( 0.0000,  0.0000,  0.0000)

Unit cell:
           periodic     x           y           z      points  spacing
  1. axis:    no     8.500000    0.000000    0.000000    72     0.1181
  2. axis:    no     0.000000    8.000000    0.000000    64     0.1250
  3. axis:    no     0.000000    0.000000    8.500000    72     0.1181

  Lengths:   8.500000   8.000000   8.500000
  Angles:   90.000000  90.000000  90.000000

Effective grid spacing dv^(1/3) = 0.1203

                     log10-error:    total        iterations:
           time      wfs    density  energy       fermi  poisson
iter:   1  08:44:41  +2.41   +inf   -18.586477    0      15     
iter:   2  08:44:43  +1.17   +inf   -19.176727    0             
iter:   3  08:44:45  +0.60   +inf   -19.367356    0             
iter:   4  08:44:54  +0.61  -0.70   -16.394401    0      11     
iter:   5  08:45:03  +0.85  -0.77   -15.255603    0      9      
iter:   6  08:45:11  +0.53  -0.97   -14.477138    0      9      
iter:   7  08:45:20  +0.22  -1.20   -14.342186    0      9      
iter:   8  08:45:27  +0.52  -1.50   -14.365630    0      7      
iter:   9  08:45:35  -0.23  -1.68   -14.370762    0      7      
iter:  10  08:45:41  +0.13  -1.97   -14.375006    0      5      
iter:  11  08:45:48  -0.79  -2.22   -14.376915    0      5      
iter:  12  08:45:54  -0.63  -2.43   -14.378518    0      4      
iter:  13  08:46:01  -1.23  -2.61   -14.379541    0      4      
iter:  14  08:46:07  -1.09  -2.66   -14.380224    0      5      
iter:  15  08:46:14  -1.70  -3.10   -14.380144    0      4      
iter:  16  08:46:20  -1.46  -3.19   -14.380587    0      3      
iter:  17  08:46:26  -2.12  -3.24   -14.380904    0      3      
iter:  18  08:46:31  -1.83  -3.23   -14.381113    0      3      
iter:  19  08:46:37  -2.48  -3.43   -14.381319    0      3      
iter:  20  08:46:43  -2.25  -3.79   -14.381343    0      2      
iter:  21  08:46:49  -2.80  -3.87   -14.381323    0      3      
iter:  22  08:46:54  -2.64  -4.34   -14.381017    0      1      
iter:  23  08:46:59  -3.10  -4.27   -14.381226    0      2      
iter:  24  08:47:04  -2.96  -4.20   -14.380997    0      1      
iter:  25  08:47:09  -3.38  -4.02   -14.381264    0      1      
iter:  26  08:47:15  -3.25  -4.00   -14.381319    0      2      
iter:  27  08:47:20  -3.70  -4.13   -14.381176    0      2      
iter:  28  08:47:26  -3.57  -3.96   -14.381347    0      3      
iter:  29  08:47:31  -4.00  -4.35   -14.381060    0      2      
iter:  30  08:47:36  -3.84  -4.48   -14.381288    0      1      
iter:  31  08:47:42  -4.43  -4.59   -14.381278    0      2      
iter:  32  08:47:47  -4.19  -4.98   -14.381139    0      1      
iter:  33  08:47:52  -4.72  -5.05   -14.381252    0      1      
iter:  34  08:47:57  -4.49  -5.31   -14.381184    0      1      
iter:  35  08:48:02  -5.01  -5.17   -14.381211    0      1      
iter:  36  08:48:07  -4.79  -5.09   -14.381167    0      1      
iter:  37  08:48:12  -5.29  -4.93   -14.381280    0      1      
iter:  38  08:48:17  -5.10  -5.10   -14.381252    0      1      
iter:  39  08:48:22  -5.62  -5.20   -14.381340    0      1      
iter:  40  08:48:27  -5.43  -5.51   -14.381168    0      1      
iter:  41  08:48:32  -5.90  -5.52   -14.381205    0      1      
iter:  42  08:48:37  -5.75  -5.37   -14.381151    0      1      
iter:  43  08:48:42  -6.14  -5.36   -14.381181    0      1      
iter:  44  08:48:47  -6.03  -5.28   -14.381163    0      1      
iter:  45  08:48:52  -6.40  -5.21   -14.381199    0      1      
iter:  46  08:48:57  -6.31  -5.19   -14.381195    0      1      
iter:  47  08:49:02  -6.69  -5.14   -14.381178    0      1      
iter:  48  08:49:07  -6.58  -5.14   -14.381253    0      1      
iter:  49  08:49:12  -7.03  -5.24   -14.381290    0      1      
iter:  50  08:49:17  -6.96  -5.41   -14.381183    0      1      
iter:  51  08:49:22  -7.28  -5.84   -14.381208    0      1      
iter:  52  08:49:27  -7.32  -6.05   -14.381196    0      1      
iter:  53  08:49:32  -7.58  -6.09   -14.381200    0      1      

Converged after 53 iterations.

Dipole moment: (-0.929082, 1.204984, 0.114716) |e|*Ang

Energy contributions relative to reference atoms: (reference = -412395.464894)

Kinetic:        +25.890467
Potential:      -21.151125
External:        +0.000000
XC:             -18.986141
Entropy (-ST):   +0.000000
Local:           -0.134401
--------------------------
Free energy:    -14.381200
Extrapolated:   -14.381200

Fermi level: -4.90216

 Band  Eigenvalues  Occupancy
    0    -64.94263    2.00000
    1    -34.33523    2.00000
    2    -34.18993    2.00000
    3    -34.15388    2.00000
    4    -15.78646    2.00000
    5    -12.31751    2.00000
    6     -6.63797    2.00000
    7     -5.63111    2.00000
    8     -5.42701    2.00000
    9     -5.07121    2.00000
   10     -4.90216    1.00000
   11     -3.48145    0.00000
   12     -2.98638    0.00000
   13     -1.24297    0.00000
   14     -0.55893    0.00000
   15      0.69093    0.00000
   16      0.96286    0.00000
   17      1.67804    0.00000
   18      2.29774    0.00000
   19      2.64214    0.00000
   20      3.17675    0.00000

Writing to 3_57799_P1_PBE_za0_1.gpw (mode='all')

Timing:                              incl.     excl.
-----------------------------------------------------------
Hamiltonian:                         8.844     0.000   0.0% |
 Atomic:                             0.196     0.001   0.0% |
  XC Correction:                     0.196     0.196   0.1% |
 Calculate atomic Hamiltonians:      0.009     0.009   0.0% |
 Communicate:                        0.000     0.000   0.0% |
 Hartree integrate/restrict:         0.035     0.035   0.0% |
 Initialize Hamiltonian:             0.000     0.000   0.0% |
 Poisson:                            6.422     6.422   2.1% ||
 XC 3D grid:                         2.172     2.172   0.7% |
 vbar:                               0.010     0.010   0.0% |
LCAO initialization:                 0.823     0.573   0.2% |
 LCAO eigensolver:                   0.076     0.000   0.0% |
  Calculate projections:             0.000     0.000   0.0% |
  DenseAtomicCorrection:             0.000     0.000   0.0% |
  Distribute overlap matrix:         0.000     0.000   0.0% |
  Orbital Layouts:                   0.000     0.000   0.0% |
  Potential matrix:                  0.075     0.075   0.0% |
 LCAO to grid:                       0.170     0.170   0.1% |
 Set positions (LCAO WFS):           0.004     0.000   0.0% |
  Basic WFS set positions:           0.000     0.000   0.0% |
  Basis functions set positions:     0.000     0.000   0.0% |
  TCI: Calculate S, T, P:            0.004     0.004   0.0% |
SCF-cycle:                         293.816     0.021   0.0% |
 Davidson:                         109.939    20.098   6.6% |--|
  Apply hamiltonian:                 8.514     8.514   2.8% ||
  Subspace diag:                    31.264     0.005   0.0% |
   calc_h_matrix:                   15.501     7.000   2.3% ||
    Apply hamiltonian:               8.501     8.501   2.8% ||
   diagonalize:                      0.012     0.012   0.0% |
   rotate_psi:                      15.747    15.747   5.2% |-|
  calc. matrices:                   34.347    25.844   8.5% |--|
   Apply hamiltonian:                8.503     8.503   2.8% ||
  diagonalize:                       0.043     0.043   0.0% |
  rotate_psi:                       15.673    15.673   5.1% |-|
 Density:                            3.973     0.001   0.0% |
  Atomic density matrices:           0.034     0.034   0.0% |
  Mix:                               2.856     2.856   0.9% |
  Multipole moments:                 0.009     0.009   0.0% |
  Pseudo density:                    1.073     1.072   0.4% |
   Symmetrize density:               0.001     0.001   0.0% |
 Hamiltonian:                      179.685     0.006   0.0% |
  Atomic:                            9.743     0.043   0.0% |
   XC Correction:                    9.700     9.700   3.2% ||
  Calculate atomic Hamiltonians:     0.438     0.438   0.1% |
  Communicate:                       0.000     0.000   0.0% |
  Hartree integrate/restrict:        1.688     1.688   0.6% |
  Poisson:                          58.119    58.119  19.1% |-------|
  XC 3D grid:                      109.383   109.383  35.9% |-------------|
  vbar:                              0.308     0.308   0.1% |
 Orthonormalize:                     0.198     0.000   0.0% |
  calc_s_matrix:                     0.073     0.073   0.0% |
  inverse-cholesky:                  0.000     0.000   0.0% |
  projections:                       0.029     0.029   0.0% |
  rotate_psi_s:                      0.096     0.096   0.0% |
Set symmetry:                        0.001     0.001   0.0% |
Other:                               1.233     1.233   0.4% |
-----------------------------------------------------------
Total:                                       304.718 100.0%

Memory usage: 597.92 MiB
Date: Tue Aug 21 08:49:32 2018
