
  ___ ___ ___ _ _ _  
 |   |   |_  | | | | 
 | | | | | . | | | | 
 |__ |  _|___|_____|  1.4.0
 |___|_|             

User:   ???@3fe09ff0504a
Date:   Mon Aug 20 20:15:29 2018
Arch:   x86_64
Pid:    1882
Python: 3.7.0
gpaw:   /app/gpaw/software/venv/lib/python3.7/site-packages/gpaw
_gpaw:  /app/gpaw/software/venv/lib/python3.7/site-packages/
        _gpaw.cpython-37m-x86_64-linux-gnu.so
ase:    /app/gpaw/software/venv/lib/python3.7/site-packages/ase (version 3.16.2)
numpy:  /app/gpaw/software/venv/lib/python3.7/site-packages/numpy (version 1.15.0)
scipy:  /app/gpaw/software/venv/lib/python3.7/site-packages/scipy (version 1.1.0)
units:  Angstrom and eV
cores:  1

Input parameters:
  gpts: [72 64 72]
  maxiter: 150
  mixer: {backend: pulay,
          beta: None,
          method: separate,
          nmaxold: None,
          weight: None}
  xc: PBE

System changes: positions, numbers, cell, pbc, initial_charges, initial_magmoms 

Initialize ...

Hf-setup:
  name: Hafnium
  id: d03a45b6fa1dd7f07e443d1513edf499
  Z: 72
  valence: 12
  core: 60
  charge: 0.0
  file: /app/gpaw/datasets/Hf.PBE
  cutoffs: 1.30(comp), 2.36(filt), 4.02(core), lmax=2
  valence states:
                energy  radius
    5s(2.00)   -66.831   1.397
    6s(2.00)    -5.097   1.397
    5p(6.00)   -35.599   1.307
    6p(0.00)    -1.401   1.307
    5d(2.00)    -2.699   1.334
    *d          24.513   1.334

  Using partial waves for Hf as LCAO basis

N-setup:
  name: Nitrogen
  id: 45c8c9c739e7b131496b9fd2deb94bff
  Z: 7
  valence: 5
  core: 2
  charge: 0.0
  file: /app/gpaw/datasets/N.PBE
  cutoffs: 0.58(comp), 1.11(filt), 0.96(core), lmax=2
  valence states:
                energy  radius
    2s(2.00)   -18.583   0.603
    2p(3.00)    -7.089   0.529
    *s           8.629   0.603
    *p          20.123   0.529
    *d           0.000   0.577

  Using partial waves for N as LCAO basis

C-setup:
  name: Carbon
  id: 2f012631b351e3618121587a96c50fca
  Z: 6
  valence: 4
  core: 2
  charge: 0.0
  file: /app/gpaw/datasets/C.PBE
  cutoffs: 0.64(comp), 1.14(filt), 1.14(core), lmax=2
  valence states:
                energy  radius
    2s(2.00)   -13.751   0.635
    2p(2.00)    -5.285   0.635
    *s          13.461   0.635
    *p          21.927   0.635
    *d           0.000   0.635

  Using partial waves for C as LCAO basis

Reference energy: -412395.464894

Spin-paired calculation

Occupation numbers:
  Fermi-Dirac: width=0.0000 eV

Convergence criteria:
  Maximum total energy change: 0.0005 eV / electron
  Maximum integral of absolute density change: 0.0001 electrons
  Maximum integral of absolute eigenstate change: 4e-08 eV^2
  Maximum number of iterations: 150

Symmetries present (total): 1

  ( 1  0  0)
  ( 0  1  0)
  ( 0  0  1)

1 k-point (Gamma)
1 k-point in the irreducible part of the Brillouin zone
       k-points in crystal coordinates                weights
   0:     0.00000000    0.00000000    0.00000000          1/1

Wave functions: Uniform real-space grid
  Kinetic energy operator: 6*3+1=19 point O(h^6) finite-difference Laplacian
  ScaLapack parameters: grid=1x1, blocksize=None 

Eigensolver
   Davidson(niter=1, smin=None, normalize=True) 

Densities:
  Coarse grid: 72*64*72 grid
  Fine grid: 144*128*144 grid
  Total Charge: 0.000000 

Density mixing:
  Method: separate
  Backend: pulay
  Linear mixing parameter: 0.25
  Mixing with 3 old densities
  No damping of long wave oscillations 

Hamiltonian:
  XC and Coulomb potentials evaluated on a 144*128*144 grid
  Using the PBE Exchange-Correlation functional
  Interpolation: tri-quintic (5. degree polynomial)
  Poisson solver: Jacobi solver with 5 multi-grid levels
    Coarsest grid: 9 x 8 x 9 points
    Stencil: 6*3+1=19 point O(h^6) finite-difference Laplacian
    Max iterations: 1000
    Tolerance: 2.000000e-10 

Memory estimate:
  Process memory now: 604.43 MiB
  Calculator: 325.36 MiB
    Density: 113.90 MiB
      Arrays: 64.29 MiB
      Localized functions: 35.07 MiB
      Mixer: 14.54 MiB
    Hamiltonian: 92.51 MiB
      Arrays: 42.05 MiB
      XC: 0.00 MiB
      Poisson: 48.10 MiB
      vbar: 2.35 MiB
    Wavefunctions: 118.96 MiB
      Arrays psit_nG: 50.88 MiB
      Eigensolver: 63.03 MiB
      Projections: 0.01 MiB
      Projectors: 5.04 MiB

Total number of cores used: 1

Number of atoms: 3
Number of atomic orbitals: 21
Number of bands in calculation: 21
Bands to converge: occupied states only
Number of valence electrons: 21

... initialized

Initializing position-dependent things.

Density initialized from atomic densities
Creating initial wave functions:
  21 bands from LCAO basis set

      .--------------------.  
     /|                    |  
    / |                    |  
   /  |                    |  
  /   |                    |  
 *    |                    |  
 |    |                    |  
 |    |     Hf   C         |  
 |    |    N               |  
 |    |                    |  
 |    .--------------------.  
 |   /                    /   
 |  /                    /    
 | /                    /     
 |/                    /      
 *--------------------*       

Positions:
   0 Hf     3.350050    4.891250    4.325000    ( 0.0000,  0.0000,  0.0000)
   1 N      3.350050    3.108750    4.175000    ( 0.0000,  0.0000,  0.0000)
   2 C      5.149950    4.891250    4.175000    ( 0.0000,  0.0000,  0.0000)

Unit cell:
           periodic     x           y           z      points  spacing
  1. axis:    no     8.500000    0.000000    0.000000    72     0.1181
  2. axis:    no     0.000000    8.000000    0.000000    64     0.1250
  3. axis:    no     0.000000    0.000000    8.500000    72     0.1181

  Lengths:   8.500000   8.000000   8.500000
  Angles:   90.000000  90.000000  90.000000

Effective grid spacing dv^(1/3) = 0.1203

                     log10-error:    total        iterations:
           time      wfs    density  energy       fermi  poisson
iter:   1  20:15:42  +2.41   +inf   -18.618213    0      15     
iter:   2  20:15:44  +1.17   +inf   -19.202462    0             
iter:   3  20:15:46  +0.60   +inf   -19.390890    0             
iter:   4  20:15:56  +0.61  -0.70   -16.422901    0      11     
iter:   5  20:16:04  +0.85  -0.77   -15.277833    0      9      
iter:   6  20:16:13  +0.53  -0.97   -14.502251    0      9      
iter:   7  20:16:21  +0.21  -1.20   -14.364172    0      9      
iter:   8  20:16:29  +0.51  -1.50   -14.386925    0      7      
iter:   9  20:16:36  -0.23  -1.68   -14.391976    0      7      
iter:  10  20:16:43  +0.12  -1.97   -14.396133    0      5      
iter:  11  20:16:50  -0.78  -2.22   -14.398080    0      5      
iter:  12  20:16:56  -0.63  -2.42   -14.399653    0      4      
iter:  13  20:17:03  -1.23  -2.61   -14.400660    0      4      
iter:  14  20:17:09  -1.10  -2.66   -14.401319    0      5      
iter:  15  20:17:16  -1.70  -3.11   -14.401272    0      4      
iter:  16  20:17:22  -1.47  -3.19   -14.401736    0      3      
iter:  17  20:17:28  -2.11  -3.29   -14.402010    0      3      
iter:  18  20:17:34  -1.83  -3.26   -14.402232    0      3      
iter:  19  20:17:39  -2.47  -3.54   -14.402336    0      3      
iter:  20  20:17:45  -2.23  -3.74   -14.402370    0      2      
iter:  21  20:17:51  -2.79  -3.73   -14.402454    0      3      
iter:  22  20:17:56  -2.64  -4.03   -14.402465    0      2      
iter:  23  20:18:02  -3.10  -4.12   -14.402343    0      2      
iter:  24  20:18:07  -2.96  -4.20   -14.402314    0      1      
iter:  25  20:18:12  -3.40  -4.13   -14.402267    0      1      
iter:  26  20:18:17  -3.26  -4.02   -14.402358    0      1      
iter:  27  20:18:22  -3.68  -3.99   -14.402398    0      1      
iter:  28  20:18:28  -3.55  -3.95   -14.402272    0      2      
iter:  29  20:18:33  -3.98  -3.87   -14.402324    0      2      
iter:  30  20:18:39  -3.81  -3.85   -14.402457    0      2      
iter:  31  20:18:44  -4.30  -3.96   -14.402541    0      2      
iter:  32  20:18:50  -4.22  -4.19   -14.402392    0      2      
iter:  33  20:18:55  -4.62  -4.42   -14.402379    0      1      
iter:  34  20:19:00  -4.55  -4.47   -14.402344    0      2      
iter:  35  20:19:05  -4.92  -4.70   -14.402304    0      1      
iter:  36  20:19:11  -4.85  -4.80   -14.402265    0      1      
iter:  37  20:19:16  -5.18  -5.45   -14.402329    0      1      
iter:  38  20:19:21  -5.15  -5.34   -14.402322    0      1      
iter:  39  20:19:26  -5.47  -5.29   -14.402309    0      1      
iter:  40  20:19:31  -5.43  -5.20   -14.402310    0      1      
iter:  41  20:19:36  -5.76  -5.11   -14.402302    0      1      
iter:  42  20:19:41  -5.70  -5.02   -14.402313    0      1      
iter:  43  20:19:46  -6.02  -5.18   -14.402343    0      1      
iter:  44  20:19:51  -5.97  -5.33   -14.402358    0      1      
iter:  45  20:19:56  -6.30  -5.75   -14.402322    0      1      
iter:  46  20:20:01  -6.28  -5.90   -14.402315    0      1      
iter:  47  20:20:06  -6.58  -6.05   -14.402308    0      1      
iter:  48  20:20:11  -6.55  -6.24   -14.402306    0      1      
iter:  49  20:20:17  -6.86  -6.38   -14.402304    0      1      
iter:  50  20:20:22  -6.83  -6.26   -14.402303    0      1      
iter:  51  20:20:27  -7.14  -6.05   -14.402305    0      1      
iter:  52  20:20:32  -7.09  -6.10   -14.402305    0      1      
iter:  53  20:20:37  -7.41  -6.10   -14.402305    0      1      

Converged after 53 iterations.

Dipole moment: (-0.928402, 1.205722, 0.172020) |e|*Ang

Energy contributions relative to reference atoms: (reference = -412395.464894)

Kinetic:        +25.223174
Potential:      -20.617442
External:        +0.000000
XC:             -18.870271
Entropy (-ST):   +0.000000
Local:           -0.137766
--------------------------
Free energy:    -14.402305
Extrapolated:   -14.402305

Fermi level: -4.91113

 Band  Eigenvalues  Occupancy
    0    -64.95988    2.00000
    1    -34.34462    2.00000
    2    -34.20696    2.00000
    3    -34.15815    2.00000
    4    -15.78557    2.00000
    5    -12.32316    2.00000
    6     -6.62356    2.00000
    7     -5.62071    2.00000
    8     -5.42116    2.00000
    9     -5.06024    2.00000
   10     -4.91113    1.00000
   11     -3.47447    0.00000
   12     -2.99250    0.00000
   13     -1.24990    0.00000
   14     -0.57388    0.00000
   15      0.66308    0.00000
   16      0.94316    0.00000
   17      1.65736    0.00000
   18      2.28268    0.00000
   19      2.62455    0.00000
   20      3.17625    0.00000

Writing to 3_57799_P1_PBE_zy0_1500.gpw (mode='all')

Timing:                              incl.     excl.
-----------------------------------------------------------
Hamiltonian:                         8.887     0.000   0.0% |
 Atomic:                             0.198     0.001   0.0% |
  XC Correction:                     0.197     0.197   0.1% |
 Calculate atomic Hamiltonians:      0.009     0.009   0.0% |
 Communicate:                        0.000     0.000   0.0% |
 Hartree integrate/restrict:         0.035     0.035   0.0% |
 Initialize Hamiltonian:             0.000     0.000   0.0% |
 Poisson:                            6.462     6.462   2.1% ||
 XC 3D grid:                         2.174     2.174   0.7% |
 vbar:                               0.011     0.011   0.0% |
LCAO initialization:                 0.805     0.555   0.2% |
 LCAO eigensolver:                   0.076     0.000   0.0% |
  Calculate projections:             0.000     0.000   0.0% |
  DenseAtomicCorrection:             0.000     0.000   0.0% |
  Distribute overlap matrix:         0.000     0.000   0.0% |
  Orbital Layouts:                   0.000     0.000   0.0% |
  Potential matrix:                  0.075     0.075   0.0% |
 LCAO to grid:                       0.171     0.171   0.1% |
 Set positions (LCAO WFS):           0.004     0.000   0.0% |
  Basic WFS set positions:           0.000     0.000   0.0% |
  Basis functions set positions:     0.000     0.000   0.0% |
  TCI: Calculate S, T, P:            0.003     0.003   0.0% |
SCF-cycle:                         297.234     0.021   0.0% |
 Davidson:                         112.198    20.294   6.6% |--|
  Apply hamiltonian:                 8.567     8.567   2.8% ||
  Subspace diag:                    32.085     0.005   0.0% |
   calc_h_matrix:                   15.782     7.224   2.3% ||
    Apply hamiltonian:               8.557     8.557   2.8% ||
   diagonalize:                      0.012     0.012   0.0% |
   rotate_psi:                      16.286    16.286   5.3% |-|
  calc. matrices:                   34.946    26.384   8.6% |--|
   Apply hamiltonian:                8.562     8.562   2.8% ||
  diagonalize:                       0.043     0.043   0.0% |
  rotate_psi:                       16.262    16.262   5.3% |-|
 Density:                            4.036     0.001   0.0% |
  Atomic density matrices:           0.035     0.035   0.0% |
  Mix:                               2.907     2.907   0.9% |
  Multipole moments:                 0.009     0.009   0.0% |
  Pseudo density:                    1.084     1.083   0.4% |
   Symmetrize density:               0.001     0.001   0.0% |
 Hamiltonian:                      180.775     0.006   0.0% |
  Atomic:                            9.873     0.043   0.0% |
   XC Correction:                    9.830     9.830   3.2% ||
  Calculate atomic Hamiltonians:     0.437     0.437   0.1% |
  Communicate:                       0.000     0.000   0.0% |
  Hartree integrate/restrict:        1.717     1.717   0.6% |
  Poisson:                          58.860    58.860  19.1% |-------|
  XC 3D grid:                      109.563   109.563  35.6% |-------------|
  vbar:                              0.319     0.319   0.1% |
 Orthonormalize:                     0.204     0.000   0.0% |
  calc_s_matrix:                     0.075     0.075   0.0% |
  inverse-cholesky:                  0.000     0.000   0.0% |
  projections:                       0.028     0.028   0.0% |
  rotate_psi_s:                      0.100     0.100   0.0% |
Set symmetry:                        0.001     0.001   0.0% |
Other:                               1.135     1.135   0.4% |
-----------------------------------------------------------
Total:                                       308.062 100.0%

Memory usage: 610.80 MiB
Date: Mon Aug 20 20:20:37 2018
