
  ___ ___ ___ _ _ _  
 |   |   |_  | | | | 
 | | | | | . | | | | 
 |__ |  _|___|_____|  1.4.0
 |___|_|             

User:   ???@3fe09ff0504a
Date:   Sun Aug 26 17:11:34 2018
Arch:   x86_64
Pid:    3635
Python: 3.7.0
gpaw:   /app/gpaw/software/venv/lib/python3.7/site-packages/gpaw
_gpaw:  /app/gpaw/software/venv/lib/python3.7/site-packages/
        _gpaw.cpython-37m-x86_64-linux-gnu.so
ase:    /app/gpaw/software/venv/lib/python3.7/site-packages/ase (version 3.16.2)
numpy:  /app/gpaw/software/venv/lib/python3.7/site-packages/numpy (version 1.15.1)
scipy:  /app/gpaw/software/venv/lib/python3.7/site-packages/scipy (version 1.1.0)
units:  Angstrom and eV
cores:  1

Input parameters:
  gpts: [72 64 72]
  maxiter: 150
  mixer: {backend: pulay,
          beta: None,
          method: separate,
          nmaxold: None,
          weight: None}
  xc: HYB_GGA_XC_HSE06

System changes: positions, numbers, cell, pbc, initial_charges, initial_magmoms 

Initialize ...

Hf-setup:
  name: Hafnium
  id: 5ad85f397510af2f8a9ce4b48a3f2bda
  Z: 72
  valence: 12
  core: 60
  charge: 0.0
  file: /app/gpaw/datasets/Hf.HYB_GGA_XC_HSE06
  cutoffs: 1.30(comp), 2.36(filt), 4.43(core), lmax=2
  valence states:
                energy  radius
    5s(2.00)   -64.361   1.397
    6s(2.00)    -4.706   1.397
    5p(6.00)   -33.586   1.307
    6p(0.00)    -1.248   1.307
    5d(2.00)    -1.902   1.334
    *d          25.309   1.334

  Using partial waves for Hf as LCAO basis

N-setup:
  name: Nitrogen
  id: effabec25d40288de18cd74b41d54e6e
  Z: 7
  valence: 5
  core: 2
  charge: 0.0
  file: /app/gpaw/datasets/N.HYB_GGA_XC_HSE06
  cutoffs: 0.58(comp), 1.11(filt), 0.96(core), lmax=2
  valence states:
                energy  radius
    2s(2.00)   -16.680   0.603
    2p(3.00)    -5.635   0.529
    *s          10.531   0.603
    *p          21.576   0.529
    *d           0.000   0.577

  Using partial waves for N as LCAO basis

C-setup:
  name: Carbon
  id: 83c0b7d2aa9edbf50f2e05e498a20a4d
  Z: 6
  valence: 4
  core: 2
  charge: 0.0
  file: /app/gpaw/datasets/C.HYB_GGA_XC_HSE06
  cutoffs: 0.64(comp), 1.14(filt), 1.17(core), lmax=2
  valence states:
                energy  radius
    2s(2.00)   -12.252   0.635
    2p(2.00)    -4.174   0.635
    *s          14.959   0.635
    *p          23.038   0.635
    *d           0.000   0.635

  Using partial waves for C as LCAO basis

Reference energy: -410281.873813

Spin-paired calculation

Occupation numbers:
  Fermi-Dirac: width=0.0000 eV

Convergence criteria:
  Maximum total energy change: 0.0005 eV / electron
  Maximum integral of absolute density change: 0.0001 electrons
  Maximum integral of absolute eigenstate change: 4e-08 eV^2
  Maximum number of iterations: 150

Symmetries present (total): 1

  ( 1  0  0)
  ( 0  1  0)
  ( 0  0  1)

1 k-point (Gamma)
1 k-point in the irreducible part of the Brillouin zone
       k-points in crystal coordinates                weights
   0:     0.00000000    0.00000000    0.00000000          1/1

Wave functions: Uniform real-space grid
  Kinetic energy operator: 6*3+1=19 point O(h^6) finite-difference Laplacian
  ScaLapack parameters: grid=1x1, blocksize=None 

Eigensolver
   Davidson(niter=1, smin=None, normalize=True) 

Densities:
  Coarse grid: 72*64*72 grid
  Fine grid: 144*128*144 grid
  Total Charge: 0.000000 

Density mixing:
  Method: separate
  Backend: pulay
  Linear mixing parameter: 0.25
  Mixing with 3 old densities
  No damping of long wave oscillations 

Hamiltonian:
  XC and Coulomb potentials evaluated on a 144*128*144 grid
  Using the HYB_GGA_XC_HSE06 Exchange-Correlation functional
  Interpolation: tri-quintic (5. degree polynomial)
  Poisson solver: Jacobi solver with 5 multi-grid levels
    Coarsest grid: 9 x 8 x 9 points
    Stencil: 6*3+1=19 point O(h^6) finite-difference Laplacian
    Max iterations: 1000
    Tolerance: 2.000000e-10 

Memory estimate:
  Process memory now: 41.64 MiB
  Calculator: 325.77 MiB
    Density: 114.31 MiB
      Arrays: 64.29 MiB
      Localized functions: 35.48 MiB
      Mixer: 14.54 MiB
    Hamiltonian: 92.51 MiB
      Arrays: 42.05 MiB
      XC: 0.00 MiB
      Poisson: 48.10 MiB
      vbar: 2.35 MiB
    Wavefunctions: 118.96 MiB
      Arrays psit_nG: 50.88 MiB
      Eigensolver: 63.03 MiB
      Projections: 0.01 MiB
      Projectors: 5.04 MiB

Total number of cores used: 1

Number of atoms: 3
Number of atomic orbitals: 21
Number of bands in calculation: 21
Bands to converge: occupied states only
Number of valence electrons: 21

... initialized

Initializing position-dependent things.

Density initialized from atomic densities
Creating initial wave functions:
  21 bands from LCAO basis set

      .--------------------.  
     /|                    |  
    / |                    |  
   /  |                    |  
  /   |                    |  
 *    |                    |  
 |    |                    |  
 |    |     Hf   C         |  
 |    |    N               |  
 |    |                    |  
 |    .--------------------.  
 |   /                    /   
 |  /                    /    
 | /                    /     
 |/                    /      
 *--------------------*       

Positions:
   0 Hf     3.335050    4.906250    4.250000    ( 0.0000,  0.0000,  0.0000)
   1 N      3.335050    3.093750    4.250000    ( 0.0000,  0.0000,  0.0000)
   2 C      5.164950    4.906250    4.250000    ( 0.0000,  0.0000,  0.0000)

Unit cell:
           periodic     x           y           z      points  spacing
  1. axis:    no     8.500000    0.000000    0.000000    72     0.1181
  2. axis:    no     0.000000    8.000000    0.000000    64     0.1250
  3. axis:    no     0.000000    0.000000    8.500000    72     0.1181

  Lengths:   8.500000   8.000000   8.500000
  Angles:   90.000000  90.000000  90.000000

Effective grid spacing dv^(1/3) = 0.1203

                     log10-error:    total        iterations:
           time      wfs    density  energy       fermi  poisson
iter:   1  17:11:53  +2.49   +inf   -14.557208    0      15     
iter:   2  17:11:55  +1.24   +inf   -15.261350    0             
iter:   3  17:11:57  +0.64   +inf   -15.498875    0             
iter:   4  17:12:13  +0.69  -0.71   -12.466753    0      11     
iter:   5  17:12:27  +0.91  -0.79   -11.529134    0      9      
iter:   6  17:12:41  +0.57  -0.97   -10.681298    0      9      
iter:   7  17:12:55  +0.23  -1.22   -10.526987    0      9      
iter:   8  17:13:08  +0.46  -1.49   -10.536088    0      8      
iter:   9  17:13:21  -0.11  -1.23   -10.551293    0      6      
iter:  10  17:13:33  -0.02  -1.68   -10.564429    0      6      
iter:  11  17:13:46  -0.50  -1.59   -10.553320    0      6      
iter:  12  17:13:58  -0.40  -1.84   -10.551666    0      6      
iter:  13  17:14:10  -1.08  -2.27   -10.552615    0      5      
iter:  14  17:14:23  -0.90  -2.47   -10.553975    0      5      
iter:  15  17:14:34  -1.44  -2.59   -10.554637    0      4      
iter:  16  17:14:46  -1.27  -2.76   -10.555234    0      4      
iter:  17  17:14:58  -1.78  -2.98   -10.555637    0      4      
iter:  18  17:15:10  -1.70  -3.15   -10.555838    0      4      
iter:  19  17:15:21  -2.11  -3.25   -10.555953    0      3      
iter:  20  17:15:33  -2.06  -3.28   -10.556088    0      4      
iter:  21  17:15:44  -2.45  -3.52   -10.556178    0      3      
iter:  22  17:15:55  -2.44  -3.70   -10.556201    0      3      
iter:  23  17:16:06  -2.77  -3.91   -10.556144    0      2      
iter:  24  17:16:17  -2.74  -3.66   -10.556174    0      2      
iter:  25  17:16:28  -3.05  -4.05   -10.556331    0      1      
iter:  26  17:16:38  -3.08  -3.96   -10.556279    0      1      
iter:  27  17:16:48  -3.35  -3.89   -10.556061    0      1      
iter:  28  17:16:59  -3.37  -3.75   -10.556435    0      1      
iter:  29  17:17:10  -3.64  -3.76   -10.556064    0      2      
iter:  30  17:17:21  -3.60  -3.70   -10.556421    0      2      
iter:  31  17:17:31  -4.03  -3.68   -10.556202    0      2      
iter:  32  17:17:42  -3.97  -3.82   -10.556345    0      2      
iter:  33  17:17:53  -4.34  -3.97   -10.556168    0      1      
iter:  34  17:18:04  -4.31  -4.04   -10.556250    0      2      
iter:  35  17:18:14  -4.64  -4.10   -10.556123    0      1      
iter:  36  17:18:25  -4.63  -4.06   -10.556220    0      2      
iter:  37  17:18:35  -4.96  -4.26   -10.556088    0      1      
iter:  38  17:18:46  -4.92  -4.32   -10.556199    0      1      
iter:  39  17:18:56  -5.27  -4.60   -10.556211    0      1      
iter:  40  17:19:07  -5.21  -4.89   -10.556186    0      1      
iter:  41  17:19:17  -5.56  -5.08   -10.556139    0      1      
iter:  42  17:19:27  -5.51  -5.08   -10.556143    0      1      
iter:  43  17:19:38  -5.83  -5.21   -10.556145    0      1      
iter:  44  17:19:48  -5.77  -5.41   -10.556138    0      1      
iter:  45  17:19:59  -6.11  -5.46   -10.556136    0      1      
iter:  46  17:20:09  -6.04  -5.39   -10.556136    0      1      
iter:  47  17:20:20  -6.38  -5.44   -10.556132    0      1      
iter:  48  17:20:30  -6.32  -5.45   -10.556138    0      1      
iter:  49  17:20:41  -6.64  -5.47   -10.556134    0      1      
iter:  50  17:20:51  -6.57  -5.47   -10.556133    0      1      
iter:  51  17:21:02  -6.91  -5.49   -10.556136    0      1      
iter:  52  17:21:12  -6.84  -5.53   -10.556152    0      1      
iter:  53  17:21:23  -7.10  -5.73   -10.556139    0      1      
iter:  54  17:21:33  -7.12  -5.80   -10.556124    0      1      
iter:  55  17:21:43  -7.41  -5.77   -10.556132    0      1      

Converged after 55 iterations.

Dipole moment: (-0.869910, 1.142769, -0.000000) |e|*Ang

Energy contributions relative to reference atoms: (reference = -410281.873813)

Kinetic:        +36.350771
Potential:      -31.723681
External:        +0.000000
XC:             -15.116655
Entropy (-ST):   +0.000000
Local:           -0.066567
--------------------------
Free energy:    -10.556132
Extrapolated:   -10.556132

Fermi level: -3.97052

 Band  Eigenvalues  Occupancy
    0    -62.35789    2.00000
    1    -32.20842    2.00000
    2    -32.04104    2.00000
    3    -32.01229    2.00000
    4    -14.28876    2.00000
    5    -11.00258    2.00000
    6     -5.59149    2.00000
    7     -4.53395    2.00000
    8     -4.21636    2.00000
    9     -3.99322    2.00000
   10     -3.97052    1.00000
   11     -2.57573    0.00000
   12     -2.42812    0.00000
   13     -0.74887    0.00000
   14      0.01840    0.00000
   15      1.46270    0.00000
   16      1.56203    0.00000
   17      2.01608    0.00000
   18      2.81692    0.00000
   19      3.11798    0.00000
   20      3.36144    0.00000

Writing to 3_57799_Pm_HYB_GGA_XC_HSE06_1535303494.gpw (mode='all')

Timing:                              incl.     excl.
-----------------------------------------------------------
Hamiltonian:                        13.749     0.000   0.0% |
 Atomic:                             0.402     0.001   0.0% |
  XC Correction:                     0.401     0.401   0.1% |
 Calculate atomic Hamiltonians:      0.009     0.009   0.0% |
 Communicate:                        0.000     0.000   0.0% |
 Hartree integrate/restrict:         0.036     0.036   0.0% |
 Initialize Hamiltonian:             0.000     0.000   0.0% |
 Poisson:                            6.570     6.570   1.1% |
 XC 3D grid:                         6.720     6.720   1.1% |
 vbar:                               0.011     0.011   0.0% |
LCAO initialization:                 0.838     0.581   0.1% |
 LCAO eigensolver:                   0.077     0.000   0.0% |
  Calculate projections:             0.000     0.000   0.0% |
  DenseAtomicCorrection:             0.000     0.000   0.0% |
  Distribute overlap matrix:         0.000     0.000   0.0% |
  Orbital Layouts:                   0.000     0.000   0.0% |
  Potential matrix:                  0.076     0.076   0.0% |
 LCAO to grid:                       0.175     0.175   0.0% |
 Set positions (LCAO WFS):           0.004     0.000   0.0% |
  Basic WFS set positions:           0.000     0.000   0.0% |
  Basis functions set positions:     0.000     0.000   0.0% |
  TCI: Calculate S, T, P:            0.004     0.004   0.0% |
SCF-cycle:                         593.375     0.021   0.0% |
 Davidson:                         121.350    21.759   3.6% ||
  Apply hamiltonian:                 9.121     9.121   1.5% ||
  Subspace diag:                    34.735     0.005   0.0% |
   calc_h_matrix:                   17.311     8.186   1.3% ||
    Apply hamiltonian:               9.125     9.125   1.5% ||
   diagonalize:                      0.013     0.013   0.0% |
   rotate_psi:                      17.406    17.406   2.9% ||
  calc. matrices:                   38.342    29.235   4.8% |-|
   Apply hamiltonian:                9.107     9.107   1.5% ||
  diagonalize:                       0.044     0.044   0.0% |
  rotate_psi:                       17.350    17.350   2.8% ||
 Density:                            4.448     0.001   0.0% |
  Atomic density matrices:           0.036     0.036   0.0% |
  Mix:                               3.179     3.179   0.5% |
  Multipole moments:                 0.009     0.009   0.0% |
  Pseudo density:                    1.223     1.222   0.2% |
   Symmetrize density:               0.001     0.001   0.0% |
 Hamiltonian:                      467.336     0.005   0.0% |
  Atomic:                           21.073     0.045   0.0% |
   XC Correction:                   21.027    21.027   3.5% ||
  Calculate atomic Hamiltonians:     0.450     0.450   0.1% |
  Communicate:                       0.000     0.000   0.0% |
  Hartree integrate/restrict:        1.900     1.900   0.3% |
  Poisson:                          66.016    66.016  10.8% |---|
  XC 3D grid:                      377.531   377.531  62.0% |------------------------|
  vbar:                              0.361     0.361   0.1% |
 Orthonormalize:                     0.220     0.000   0.0% |
  calc_s_matrix:                     0.086     0.086   0.0% |
  inverse-cholesky:                  0.000     0.000   0.0% |
  projections:                       0.029     0.029   0.0% |
  rotate_psi_s:                      0.104     0.104   0.0% |
Set symmetry:                        0.001     0.001   0.0% |
Other:                               1.247     1.247   0.2% |
-----------------------------------------------------------
Total:                                       609.210 100.0%

Memory usage: 598.53 MiB
Date: Sun Aug 26 17:21:43 2018
