
  ___ ___ ___ _ _ _  
 |   |   |_  | | | | 
 | | | | | . | | | | 
 |__ |  _|___|_____|  1.4.0
 |___|_|             

User:   ???@3fe09ff0504a
Date:   Mon Aug 20 20:20:37 2018
Arch:   x86_64
Pid:    1882
Python: 3.7.0
gpaw:   /app/gpaw/software/venv/lib/python3.7/site-packages/gpaw
_gpaw:  /app/gpaw/software/venv/lib/python3.7/site-packages/
        _gpaw.cpython-37m-x86_64-linux-gnu.so
ase:    /app/gpaw/software/venv/lib/python3.7/site-packages/ase (version 3.16.2)
numpy:  /app/gpaw/software/venv/lib/python3.7/site-packages/numpy (version 1.15.0)
scipy:  /app/gpaw/software/venv/lib/python3.7/site-packages/scipy (version 1.1.0)
units:  Angstrom and eV
cores:  1

Input parameters:
  gpts: [72 64 72]
  maxiter: 150
  mixer: {backend: pulay,
          beta: None,
          method: separate,
          nmaxold: None,
          weight: None}
  xc: PBE

System changes: positions, numbers, cell, pbc, initial_charges, initial_magmoms 

Initialize ...

Hf-setup:
  name: Hafnium
  id: d03a45b6fa1dd7f07e443d1513edf499
  Z: 72
  valence: 12
  core: 60
  charge: 0.0
  file: /app/gpaw/datasets/Hf.PBE
  cutoffs: 1.30(comp), 2.36(filt), 4.02(core), lmax=2
  valence states:
                energy  radius
    5s(2.00)   -66.831   1.397
    6s(2.00)    -5.097   1.397
    5p(6.00)   -35.599   1.307
    6p(0.00)    -1.401   1.307
    5d(2.00)    -2.699   1.334
    *d          24.513   1.334

  Using partial waves for Hf as LCAO basis

N-setup:
  name: Nitrogen
  id: 45c8c9c739e7b131496b9fd2deb94bff
  Z: 7
  valence: 5
  core: 2
  charge: 0.0
  file: /app/gpaw/datasets/N.PBE
  cutoffs: 0.58(comp), 1.11(filt), 0.96(core), lmax=2
  valence states:
                energy  radius
    2s(2.00)   -18.583   0.603
    2p(3.00)    -7.089   0.529
    *s           8.629   0.603
    *p          20.123   0.529
    *d           0.000   0.577

  Using partial waves for N as LCAO basis

C-setup:
  name: Carbon
  id: 2f012631b351e3618121587a96c50fca
  Z: 6
  valence: 4
  core: 2
  charge: 0.0
  file: /app/gpaw/datasets/C.PBE
  cutoffs: 0.64(comp), 1.14(filt), 1.14(core), lmax=2
  valence states:
                energy  radius
    2s(2.00)   -13.751   0.635
    2p(2.00)    -5.285   0.635
    *s          13.461   0.635
    *p          21.927   0.635
    *d           0.000   0.635

  Using partial waves for C as LCAO basis

Reference energy: -412395.464894

Spin-paired calculation

Occupation numbers:
  Fermi-Dirac: width=0.0000 eV

Convergence criteria:
  Maximum total energy change: 0.0005 eV / electron
  Maximum integral of absolute density change: 0.0001 electrons
  Maximum integral of absolute eigenstate change: 4e-08 eV^2
  Maximum number of iterations: 150

Symmetries present (total): 1

  ( 1  0  0)
  ( 0  1  0)
  ( 0  0  1)

1 k-point (Gamma)
1 k-point in the irreducible part of the Brillouin zone
       k-points in crystal coordinates                weights
   0:     0.00000000    0.00000000    0.00000000          1/1

Wave functions: Uniform real-space grid
  Kinetic energy operator: 6*3+1=19 point O(h^6) finite-difference Laplacian
  ScaLapack parameters: grid=1x1, blocksize=None 

Eigensolver
   Davidson(niter=1, smin=None, normalize=True) 

Densities:
  Coarse grid: 72*64*72 grid
  Fine grid: 144*128*144 grid
  Total Charge: 0.000000 

Density mixing:
  Method: separate
  Backend: pulay
  Linear mixing parameter: 0.25
  Mixing with 3 old densities
  No damping of long wave oscillations 

Hamiltonian:
  XC and Coulomb potentials evaluated on a 144*128*144 grid
  Using the PBE Exchange-Correlation functional
  Interpolation: tri-quintic (5. degree polynomial)
  Poisson solver: Jacobi solver with 5 multi-grid levels
    Coarsest grid: 9 x 8 x 9 points
    Stencil: 6*3+1=19 point O(h^6) finite-difference Laplacian
    Max iterations: 1000
    Tolerance: 2.000000e-10 

Memory estimate:
  Process memory now: 610.80 MiB
  Calculator: 325.36 MiB
    Density: 113.90 MiB
      Arrays: 64.29 MiB
      Localized functions: 35.07 MiB
      Mixer: 14.54 MiB
    Hamiltonian: 92.51 MiB
      Arrays: 42.05 MiB
      XC: 0.00 MiB
      Poisson: 48.10 MiB
      vbar: 2.35 MiB
    Wavefunctions: 118.96 MiB
      Arrays psit_nG: 50.88 MiB
      Eigensolver: 63.03 MiB
      Projections: 0.01 MiB
      Projectors: 5.04 MiB

Total number of cores used: 1

Number of atoms: 3
Number of atomic orbitals: 21
Number of bands in calculation: 21
Bands to converge: occupied states only
Number of valence electrons: 21

... initialized

Initializing position-dependent things.

Density initialized from atomic densities
Creating initial wave functions:
  21 bands from LCAO basis set

      .--------------------.  
     /|                    |  
    / |                    |  
   /  |                    |  
  /   |                    |  
 *    |                    |  
 |    |                    |  
 |    |     Hf   C         |  
 |    |    N               |  
 |    |                    |  
 |    .--------------------.  
 |   /                    /   
 |  /                    /    
 | /                    /     
 |/                    /      
 *--------------------*       

Positions:
   0 Hf     3.350050    4.891250    4.330000    ( 0.0000,  0.0000,  0.0000)
   1 N      3.350050    3.108750    4.170000    ( 0.0000,  0.0000,  0.0000)
   2 C      5.149950    4.891250    4.170000    ( 0.0000,  0.0000,  0.0000)

Unit cell:
           periodic     x           y           z      points  spacing
  1. axis:    no     8.500000    0.000000    0.000000    72     0.1181
  2. axis:    no     0.000000    8.000000    0.000000    64     0.1250
  3. axis:    no     0.000000    0.000000    8.500000    72     0.1181

  Lengths:   8.500000   8.000000   8.500000
  Angles:   90.000000  90.000000  90.000000

Effective grid spacing dv^(1/3) = 0.1203

                     log10-error:    total        iterations:
           time      wfs    density  energy       fermi  poisson
iter:   1  20:20:50  +2.41   +inf   -18.626044    0      15     
iter:   2  20:20:52  +1.16   +inf   -19.208863    0             
iter:   3  20:20:54  +0.60   +inf   -19.396741    0             
iter:   4  20:21:04  +0.61  -0.70   -16.429936    0      11     
iter:   5  20:21:12  +0.85  -0.77   -15.283266    0      9      
iter:   6  20:21:21  +0.53  -0.97   -14.508391    0      9      
iter:   7  20:21:29  +0.21  -1.20   -14.369567    0      9      
iter:   8  20:21:37  +0.51  -1.50   -14.392094    0      7      
iter:   9  20:21:44  -0.23  -1.68   -14.397140    0      7      
iter:  10  20:21:51  +0.12  -1.97   -14.401263    0      5      
iter:  11  20:21:58  -0.78  -2.22   -14.403219    0      5      
iter:  12  20:22:04  -0.63  -2.42   -14.404784    0      4      
iter:  13  20:22:11  -1.23  -2.61   -14.405786    0      4      
iter:  14  20:22:17  -1.10  -2.66   -14.406440    0      5      
iter:  15  20:22:24  -1.70  -3.11   -14.406400    0      4      
iter:  16  20:22:30  -1.47  -3.19   -14.406870    0      3      
iter:  17  20:22:36  -2.11  -3.30   -14.407135    0      3      
iter:  18  20:22:42  -1.84  -3.27   -14.407354    0      3      
iter:  19  20:22:48  -2.47  -3.57   -14.407439    0      3      
iter:  20  20:22:53  -2.22  -3.72   -14.407445    0      2      
iter:  21  20:22:59  -2.78  -3.69   -14.407052    0      2      
iter:  22  20:23:04  -2.51  -3.45   -14.407562    0      3      
iter:  23  20:23:10  -3.12  -3.64   -14.407526    0      3      
iter:  24  20:23:16  -2.93  -3.77   -14.407702    0      3      
iter:  25  20:23:22  -3.43  -4.12   -14.407306    0      2      
iter:  26  20:23:27  -3.26  -4.41   -14.407593    0      1      
iter:  27  20:23:32  -3.83  -4.52   -14.407424    0      1      
iter:  28  20:23:37  -3.59  -4.45   -14.407496    0      1      
iter:  29  20:23:42  -4.16  -4.45   -14.407530    0      1      
iter:  30  20:23:48  -3.93  -4.48   -14.407500    0      2      
iter:  31  20:23:53  -4.47  -4.74   -14.407462    0      1      
iter:  32  20:23:58  -4.25  -4.70   -14.407575    0      1      
iter:  33  20:24:03  -4.79  -5.09   -14.407510    0      1      
iter:  34  20:24:08  -4.60  -5.38   -14.407453    0      1      
iter:  35  20:24:13  -5.11  -5.21   -14.407469    0      1      
iter:  36  20:24:18  -4.94  -5.47   -14.407470    0      1      
iter:  37  20:24:23  -5.41  -5.74   -14.407447    0      1      
iter:  38  20:24:28  -5.27  -5.59   -14.407455    0      1      
iter:  39  20:24:33  -5.70  -5.76   -14.407441    0      1      
iter:  40  20:24:38  -5.59  -5.70   -14.407457    0      1      
iter:  41  20:24:43  -5.99  -6.10   -14.407432    0      1      
iter:  42  20:24:48  -5.91  -5.72   -14.407448    0      1      
iter:  43  20:24:54  -6.29  -6.16   -14.407435    0      1      
iter:  44  20:24:59  -6.22  -6.00   -14.407447    0      1      
iter:  45  20:25:04  -6.59  -6.28   -14.407432    0      1      
iter:  46  20:25:09  -6.54  -6.39   -14.407433    0      1      
iter:  47  20:25:14  -6.90  -6.47   -14.407428    0      1      
iter:  48  20:25:19  -6.83  -6.12   -14.407429    0      1      
iter:  49  20:25:24  -7.19  -6.05   -14.407430    0      1      
iter:  50  20:25:29  -7.12  -6.02   -14.407428    0      1      
iter:  51  20:25:34  -7.48  -5.85   -14.407426    0      1      

Converged after 51 iterations.

Dipole moment: (-0.928223, 1.205891, 0.183474) |e|*Ang

Energy contributions relative to reference atoms: (reference = -412395.464894)

Kinetic:        +25.059660
Potential:      -20.486759
External:        +0.000000
XC:             -18.841713
Entropy (-ST):   +0.000000
Local:           -0.138613
--------------------------
Free energy:    -14.407426
Extrapolated:   -14.407426

Fermi level: -4.91335

 Band  Eigenvalues  Occupancy
    0    -64.96414    2.00000
    1    -34.34695    2.00000
    2    -34.21117    2.00000
    3    -34.15924    2.00000
    4    -15.78533    2.00000
    5    -12.32454    2.00000
    6     -6.61999    2.00000
    7     -5.61813    2.00000
    8     -5.41971    2.00000
    9     -5.05751    2.00000
   10     -4.91335    1.00000
   11     -3.47271    0.00000
   12     -2.99401    0.00000
   13     -1.25161    0.00000
   14     -0.57758    0.00000
   15      0.65623    0.00000
   16      0.93827    0.00000
   17      1.65121    0.00000
   18      2.27885    0.00000
   19      2.61993    0.00000
   20      3.17536    0.00000

Writing to 3_57799_P1_PBE_zy0_1600.gpw (mode='all')

Timing:                              incl.     excl.
-----------------------------------------------------------
Hamiltonian:                         8.902     0.000   0.0% |
 Atomic:                             0.197     0.001   0.0% |
  XC Correction:                     0.196     0.196   0.1% |
 Calculate atomic Hamiltonians:      0.009     0.009   0.0% |
 Communicate:                        0.000     0.000   0.0% |
 Hartree integrate/restrict:         0.037     0.037   0.0% |
 Initialize Hamiltonian:             0.000     0.000   0.0% |
 Poisson:                            6.476     6.476   2.2% ||
 XC 3D grid:                         2.172     2.172   0.7% |
 vbar:                               0.011     0.011   0.0% |
LCAO initialization:                 0.827     0.577   0.2% |
 LCAO eigensolver:                   0.076     0.000   0.0% |
  Calculate projections:             0.000     0.000   0.0% |
  DenseAtomicCorrection:             0.000     0.000   0.0% |
  Distribute overlap matrix:         0.000     0.000   0.0% |
  Orbital Layouts:                   0.000     0.000   0.0% |
  Potential matrix:                  0.075     0.075   0.0% |
 LCAO to grid:                       0.170     0.170   0.1% |
 Set positions (LCAO WFS):           0.004     0.000   0.0% |
  Basic WFS set positions:           0.000     0.000   0.0% |
  Basis functions set positions:     0.000     0.000   0.0% |
  TCI: Calculate S, T, P:            0.003     0.003   0.0% |
SCF-cycle:                         286.384     0.020   0.0% |
 Davidson:                         107.832    19.548   6.6% |--|
  Apply hamiltonian:                 8.277     8.277   2.8% ||
  Subspace diag:                    30.916     0.005   0.0% |
   calc_h_matrix:                   15.221     6.962   2.3% ||
    Apply hamiltonian:               8.259     8.259   2.8% ||
   diagonalize:                      0.012     0.012   0.0% |
   rotate_psi:                      15.678    15.678   5.3% |-|
  calc. matrices:                   33.482    25.224   8.5% |--|
   Apply hamiltonian:                8.258     8.258   2.8% ||
  diagonalize:                       0.041     0.041   0.0% |
  rotate_psi:                       15.569    15.569   5.2% |-|
 Density:                            3.881     0.001   0.0% |
  Atomic density matrices:           0.033     0.033   0.0% |
  Mix:                               2.786     2.786   0.9% |
  Multipole moments:                 0.009     0.009   0.0% |
  Pseudo density:                    1.052     1.051   0.4% |
   Symmetrize density:               0.001     0.001   0.0% |
 Hamiltonian:                      174.447     0.005   0.0% |
  Atomic:                            9.463     0.042   0.0% |
   XC Correction:                    9.421     9.421   3.2% ||
  Calculate atomic Hamiltonians:     0.418     0.418   0.1% |
  Communicate:                       0.000     0.000   0.0% |
  Hartree integrate/restrict:        1.638     1.638   0.6% |
  Poisson:                          57.506    57.506  19.3% |-------|
  XC 3D grid:                      105.115   105.115  35.4% |-------------|
  vbar:                              0.300     0.300   0.1% |
 Orthonormalize:                     0.205     0.000   0.0% |
  calc_s_matrix:                     0.076     0.076   0.0% |
  inverse-cholesky:                  0.000     0.000   0.0% |
  projections:                       0.029     0.029   0.0% |
  rotate_psi_s:                      0.100     0.100   0.0% |
Set symmetry:                        0.001     0.001   0.0% |
Other:                               1.136     1.136   0.4% |
-----------------------------------------------------------
Total:                                       297.250 100.0%

Memory usage: 616.79 MiB
Date: Mon Aug 20 20:25:34 2018
