
  ___ ___ ___ _ _ _  
 |   |   |_  | | | | 
 | | | | | . | | | | 
 |__ |  _|___|_____|  1.4.0
 |___|_|             

User:   ???@3fe09ff0504a
Date:   Mon Aug 20 21:41:48 2018
Arch:   x86_64
Pid:    1882
Python: 3.7.0
gpaw:   /app/gpaw/software/venv/lib/python3.7/site-packages/gpaw
_gpaw:  /app/gpaw/software/venv/lib/python3.7/site-packages/
        _gpaw.cpython-37m-x86_64-linux-gnu.so
ase:    /app/gpaw/software/venv/lib/python3.7/site-packages/ase (version 3.16.2)
numpy:  /app/gpaw/software/venv/lib/python3.7/site-packages/numpy (version 1.15.0)
scipy:  /app/gpaw/software/venv/lib/python3.7/site-packages/scipy (version 1.1.0)
units:  Angstrom and eV
cores:  1

Input parameters:
  gpts: [72 64 72]
  maxiter: 150
  mixer: {backend: pulay,
          beta: None,
          method: separate,
          nmaxold: None,
          weight: None}
  xc: PBE

System changes: positions, numbers, cell, pbc, initial_charges, initial_magmoms 

Initialize ...

Hf-setup:
  name: Hafnium
  id: d03a45b6fa1dd7f07e443d1513edf499
  Z: 72
  valence: 12
  core: 60
  charge: 0.0
  file: /app/gpaw/datasets/Hf.PBE
  cutoffs: 1.30(comp), 2.36(filt), 4.02(core), lmax=2
  valence states:
                energy  radius
    5s(2.00)   -66.831   1.397
    6s(2.00)    -5.097   1.397
    5p(6.00)   -35.599   1.307
    6p(0.00)    -1.401   1.307
    5d(2.00)    -2.699   1.334
    *d          24.513   1.334

  Using partial waves for Hf as LCAO basis

N-setup:
  name: Nitrogen
  id: 45c8c9c739e7b131496b9fd2deb94bff
  Z: 7
  valence: 5
  core: 2
  charge: 0.0
  file: /app/gpaw/datasets/N.PBE
  cutoffs: 0.58(comp), 1.11(filt), 0.96(core), lmax=2
  valence states:
                energy  radius
    2s(2.00)   -18.583   0.603
    2p(3.00)    -7.089   0.529
    *s           8.629   0.603
    *p          20.123   0.529
    *d           0.000   0.577

  Using partial waves for N as LCAO basis

C-setup:
  name: Carbon
  id: 2f012631b351e3618121587a96c50fca
  Z: 6
  valence: 4
  core: 2
  charge: 0.0
  file: /app/gpaw/datasets/C.PBE
  cutoffs: 0.64(comp), 1.14(filt), 1.14(core), lmax=2
  valence states:
                energy  radius
    2s(2.00)   -13.751   0.635
    2p(2.00)    -5.285   0.635
    *s          13.461   0.635
    *p          21.927   0.635
    *d           0.000   0.635

  Using partial waves for C as LCAO basis

Reference energy: -412395.464894

Spin-paired calculation

Occupation numbers:
  Fermi-Dirac: width=0.0000 eV

Convergence criteria:
  Maximum total energy change: 0.0005 eV / electron
  Maximum integral of absolute density change: 0.0001 electrons
  Maximum integral of absolute eigenstate change: 4e-08 eV^2
  Maximum number of iterations: 150

Symmetries present (total): 1

  ( 1  0  0)
  ( 0  1  0)
  ( 0  0  1)

1 k-point (Gamma)
1 k-point in the irreducible part of the Brillouin zone
       k-points in crystal coordinates                weights
   0:     0.00000000    0.00000000    0.00000000          1/1

Wave functions: Uniform real-space grid
  Kinetic energy operator: 6*3+1=19 point O(h^6) finite-difference Laplacian
  ScaLapack parameters: grid=1x1, blocksize=None 

Eigensolver
   Davidson(niter=1, smin=None, normalize=True) 

Densities:
  Coarse grid: 72*64*72 grid
  Fine grid: 144*128*144 grid
  Total Charge: 0.000000 

Density mixing:
  Method: separate
  Backend: pulay
  Linear mixing parameter: 0.25
  Mixing with 3 old densities
  No damping of long wave oscillations 

Hamiltonian:
  XC and Coulomb potentials evaluated on a 144*128*144 grid
  Using the PBE Exchange-Correlation functional
  Interpolation: tri-quintic (5. degree polynomial)
  Poisson solver: Jacobi solver with 5 multi-grid levels
    Coarsest grid: 9 x 8 x 9 points
    Stencil: 6*3+1=19 point O(h^6) finite-difference Laplacian
    Max iterations: 1000
    Tolerance: 2.000000e-10 

Memory estimate:
  Process memory now: 642.37 MiB
  Calculator: 325.36 MiB
    Density: 113.90 MiB
      Arrays: 64.29 MiB
      Localized functions: 35.07 MiB
      Mixer: 14.54 MiB
    Hamiltonian: 92.51 MiB
      Arrays: 42.05 MiB
      XC: 0.00 MiB
      Poisson: 48.10 MiB
      vbar: 2.35 MiB
    Wavefunctions: 118.96 MiB
      Arrays psit_nG: 50.88 MiB
      Eigensolver: 63.03 MiB
      Projections: 0.01 MiB
      Projectors: 5.04 MiB

Total number of cores used: 1

Number of atoms: 3
Number of atomic orbitals: 21
Number of bands in calculation: 21
Bands to converge: occupied states only
Number of valence electrons: 21

... initialized

Initializing position-dependent things.

Density initialized from atomic densities
Creating initial wave functions:
  21 bands from LCAO basis set

      .--------------------.  
     /|                    |  
    / |                    |  
   /  |                    |  
  /   |                    |  
 *    |                    |  
 |    |                    |  
 |    |     Hf   C         |  
 |    |    N               |  
 |    |                    |  
 |    .--------------------.  
 |   /                    /   
 |  /                    /    
 | /                    /     
 |/                    /      
 *--------------------*       

Positions:
   0 Hf     3.350050    4.891250    4.405000    ( 0.0000,  0.0000,  0.0000)
   1 N      3.350050    3.108750    4.095000    ( 0.0000,  0.0000,  0.0000)
   2 C      5.149950    4.891250    4.095000    ( 0.0000,  0.0000,  0.0000)

Unit cell:
           periodic     x           y           z      points  spacing
  1. axis:    no     8.500000    0.000000    0.000000    72     0.1181
  2. axis:    no     0.000000    8.000000    0.000000    64     0.1250
  3. axis:    no     0.000000    0.000000    8.500000    72     0.1181

  Lengths:   8.500000   8.000000   8.500000
  Angles:   90.000000  90.000000  90.000000

Effective grid spacing dv^(1/3) = 0.1203

                     log10-error:    total        iterations:
           time      wfs    density  energy       fermi  poisson
iter:   1  21:42:01  +2.41   +inf   -18.782610    0      15     
iter:   2  21:42:03  +1.14   +inf   -19.334497    0             
iter:   3  21:42:05  +0.58   +inf   -19.511775    0             
iter:   4  21:42:14  +0.60  -0.70   -16.571568    0      11     
iter:   5  21:42:23  +0.87  -0.77   -15.384732    0      9      
iter:   6  21:42:31  +0.51  -0.97   -14.625819    0      9      
iter:   7  21:42:40  +0.19  -1.19   -14.471599    0      9      
iter:   8  21:42:48  +0.47  -1.48   -14.488067    0      8      
iter:   9  21:42:55  -0.17  -1.69   -14.508528    0      7      
iter:  10  21:43:03  +0.08  -1.23   -14.507909    0      7      
iter:  11  21:43:10  -0.81  -1.76   -14.502843    0      5      
iter:  12  21:43:16  -0.46  -1.94   -14.504078    0      5      
iter:  13  21:43:24  -1.30  -2.06   -14.504313    0      6      
iter:  14  21:43:30  -1.14  -2.60   -14.504467    0      4      
iter:  15  21:43:36  -1.63  -2.70   -14.505119    0      4      
iter:  16  21:43:43  -1.55  -2.78   -14.505482    0      4      
iter:  17  21:43:49  -1.93  -2.92   -14.505823    0      4      
iter:  18  21:43:55  -1.91  -3.19   -14.506093    0      3      
iter:  19  21:44:01  -2.30  -3.38   -14.506197    0      3      
iter:  20  21:44:06  -2.27  -3.48   -14.506298    0      2      
iter:  21  21:44:12  -2.63  -3.61   -14.506272    0      2      
iter:  22  21:44:17  -2.59  -3.57   -14.506300    0      2      
iter:  23  21:44:23  -2.96  -3.61   -14.506403    0      2      
iter:  24  21:44:28  -2.92  -3.68   -14.506416    0      2      
iter:  25  21:44:34  -3.30  -3.73   -14.506373    0      3      
iter:  26  21:44:39  -3.27  -4.02   -14.506138    0      2      
iter:  27  21:44:44  -3.56  -3.96   -14.506205    0      1      
iter:  28  21:44:50  -3.59  -4.05   -14.506261    0      2      
iter:  29  21:44:55  -3.86  -4.13   -14.506353    0      1      
iter:  30  21:45:01  -3.88  -4.18   -14.506321    0      3      
iter:  31  21:45:06  -4.18  -4.21   -14.506064    0      2      
iter:  32  21:45:12  -4.12  -4.25   -14.506315    0      2      
iter:  33  21:45:17  -4.50  -4.90   -14.506219    0      1      
iter:  34  21:45:22  -4.41  -4.91   -14.506274    0      1      
iter:  35  21:45:27  -4.81  -5.11   -14.506236    0      1      
iter:  36  21:45:32  -4.70  -4.95   -14.506175    0      1      
iter:  37  21:45:37  -5.08  -4.79   -14.506302    0      1      
iter:  38  21:45:42  -4.98  -4.90   -14.506301    0      1      
iter:  39  21:45:47  -5.39  -4.95   -14.506420    0      1      
iter:  40  21:45:52  -5.29  -5.04   -14.506244    0      1      
iter:  41  21:45:57  -5.69  -5.13   -14.506238    0      1      
iter:  42  21:46:02  -5.59  -5.08   -14.506233    0      1      
iter:  43  21:46:07  -5.97  -5.20   -14.506226    0      1      
iter:  44  21:46:12  -5.87  -5.20   -14.506236    0      1      
iter:  45  21:46:17  -6.24  -5.11   -14.506223    0      1      
iter:  46  21:46:22  -6.15  -4.95   -14.506223    0      1      
iter:  47  21:46:27  -6.51  -5.14   -14.506238    0      1      
iter:  48  21:46:33  -6.45  -5.27   -14.506247    0      1      
iter:  49  21:46:38  -6.79  -5.29   -14.506250    0      1      
iter:  50  21:46:43  -6.72  -5.31   -14.506205    0      1      
iter:  51  21:46:48  -7.06  -5.44   -14.506223    0      1      
iter:  52  21:46:53  -7.02  -5.40   -14.506237    0      1      
iter:  53  21:46:58  -7.32  -5.89   -14.506225    0      1      
iter:  54  21:47:03  -7.33  -5.74   -14.506216    0      1      
iter:  55  21:47:08  -7.60  -5.83   -14.506217    0      1      

Converged after 55 iterations.

Dipole moment: (-0.923626, 1.208893, 0.354594) |e|*Ang

Energy contributions relative to reference atoms: (reference = -412395.464894)

Kinetic:        +21.428874
Potential:      -17.577926
External:        +0.000000
XC:             -18.201079
Entropy (-ST):   +0.000000
Local:           -0.156087
--------------------------
Free energy:    -14.506217
Extrapolated:   -14.506217

Fermi level: -4.96388

 Band  Eigenvalues  Occupancy
    0    -65.06315    2.00000
    1    -34.40278    2.00000
    2    -34.30746    2.00000
    3    -34.18994    2.00000
    4    -15.77879    2.00000
    5    -12.35528    2.00000
    6     -6.54166    2.00000
    7     -5.56351    2.00000
    8     -5.38895    2.00000
    9     -4.99706    2.00000
   10     -4.96388    1.00000
   11     -3.43317    0.00000
   12     -3.02864    0.00000
   13     -1.29152    0.00000
   14     -0.66099    0.00000
   15      0.50432    0.00000
   16      0.82744    0.00000
   17      1.51627    0.00000
   18      2.19259    0.00000
   19      2.53601    0.00000
   20      3.16917    0.00000

Writing to 3_57799_P1_PBE_zy0_3100.gpw (mode='all')

Timing:                              incl.     excl.
-----------------------------------------------------------
Hamiltonian:                         8.854     0.000   0.0% |
 Atomic:                             0.195     0.001   0.0% |
  XC Correction:                     0.194     0.194   0.1% |
 Calculate atomic Hamiltonians:      0.009     0.009   0.0% |
 Communicate:                        0.000     0.000   0.0% |
 Hartree integrate/restrict:         0.034     0.034   0.0% |
 Initialize Hamiltonian:             0.000     0.000   0.0% |
 Poisson:                            6.431     6.431   2.0% ||
 XC 3D grid:                         2.175     2.175   0.7% |
 vbar:                               0.011     0.011   0.0% |
LCAO initialization:                 0.763     0.514   0.2% |
 LCAO eigensolver:                   0.075     0.000   0.0% |
  Calculate projections:             0.000     0.000   0.0% |
  DenseAtomicCorrection:             0.000     0.000   0.0% |
  Distribute overlap matrix:         0.000     0.000   0.0% |
  Orbital Layouts:                   0.000     0.000   0.0% |
  Potential matrix:                  0.075     0.075   0.0% |
 LCAO to grid:                       0.169     0.169   0.1% |
 Set positions (LCAO WFS):           0.004     0.000   0.0% |
  Basic WFS set positions:           0.000     0.000   0.0% |
  Basis functions set positions:     0.000     0.000   0.0% |
  TCI: Calculate S, T, P:            0.003     0.003   0.0% |
SCF-cycle:                         309.280     0.021   0.0% |
 Davidson:                         114.936    20.952   6.5% |--|
  Apply hamiltonian:                 8.872     8.872   2.8% ||
  Subspace diag:                    32.736     0.005   0.0% |
   calc_h_matrix:                   16.261     7.390   2.3% ||
    Apply hamiltonian:               8.871     8.871   2.8% ||
   diagonalize:                      0.012     0.012   0.0% |
   rotate_psi:                      16.458    16.458   5.1% |-|
  calc. matrices:                   35.935    27.082   8.5% |--|
   Apply hamiltonian:                8.853     8.853   2.8% ||
  diagonalize:                       0.044     0.044   0.0% |
  rotate_psi:                       16.397    16.397   5.1% |-|
 Density:                            4.198     0.001   0.0% |
  Atomic density matrices:           0.036     0.036   0.0% |
  Mix:                               3.011     3.011   0.9% |
  Multipole moments:                 0.009     0.009   0.0% |
  Pseudo density:                    1.141     1.140   0.4% |
   Symmetrize density:               0.001     0.001   0.0% |
 Hamiltonian:                      189.926     0.006   0.0% |
  Atomic:                           10.160     0.045   0.0% |
   XC Correction:                   10.115    10.115   3.2% ||
  Calculate atomic Hamiltonians:     0.451     0.451   0.1% |
  Communicate:                       0.000     0.000   0.0% |
  Hartree integrate/restrict:        1.775     1.775   0.6% |
  Poisson:                          63.382    63.382  19.8% |-------|
  XC 3D grid:                      113.829   113.829  35.6% |-------------|
  vbar:                              0.322     0.322   0.1% |
 Orthonormalize:                     0.199     0.000   0.0% |
  calc_s_matrix:                     0.073     0.073   0.0% |
  inverse-cholesky:                  0.000     0.000   0.0% |
  projections:                       0.028     0.028   0.0% |
  rotate_psi_s:                      0.098     0.098   0.0% |
Set symmetry:                        0.001     0.001   0.0% |
Other:                               1.118     1.118   0.3% |
-----------------------------------------------------------
Total:                                       320.015 100.0%

Memory usage: 642.37 MiB
Date: Mon Aug 20 21:47:08 2018
