
  ___ ___ ___ _ _ _  
 |   |   |_  | | | | 
 | | | | | . | | | | 
 |__ |  _|___|_____|  1.4.0
 |___|_|             

User:   ???@3fe09ff0504a
Date:   Mon Aug 20 21:31:12 2018
Arch:   x86_64
Pid:    1882
Python: 3.7.0
gpaw:   /app/gpaw/software/venv/lib/python3.7/site-packages/gpaw
_gpaw:  /app/gpaw/software/venv/lib/python3.7/site-packages/
        _gpaw.cpython-37m-x86_64-linux-gnu.so
ase:    /app/gpaw/software/venv/lib/python3.7/site-packages/ase (version 3.16.2)
numpy:  /app/gpaw/software/venv/lib/python3.7/site-packages/numpy (version 1.15.0)
scipy:  /app/gpaw/software/venv/lib/python3.7/site-packages/scipy (version 1.1.0)
units:  Angstrom and eV
cores:  1

Input parameters:
  gpts: [72 64 72]
  maxiter: 150
  mixer: {backend: pulay,
          beta: None,
          method: separate,
          nmaxold: None,
          weight: None}
  xc: PBE

System changes: positions, numbers, cell, pbc, initial_charges, initial_magmoms 

Initialize ...

Hf-setup:
  name: Hafnium
  id: d03a45b6fa1dd7f07e443d1513edf499
  Z: 72
  valence: 12
  core: 60
  charge: 0.0
  file: /app/gpaw/datasets/Hf.PBE
  cutoffs: 1.30(comp), 2.36(filt), 4.02(core), lmax=2
  valence states:
                energy  radius
    5s(2.00)   -66.831   1.397
    6s(2.00)    -5.097   1.397
    5p(6.00)   -35.599   1.307
    6p(0.00)    -1.401   1.307
    5d(2.00)    -2.699   1.334
    *d          24.513   1.334

  Using partial waves for Hf as LCAO basis

N-setup:
  name: Nitrogen
  id: 45c8c9c739e7b131496b9fd2deb94bff
  Z: 7
  valence: 5
  core: 2
  charge: 0.0
  file: /app/gpaw/datasets/N.PBE
  cutoffs: 0.58(comp), 1.11(filt), 0.96(core), lmax=2
  valence states:
                energy  radius
    2s(2.00)   -18.583   0.603
    2p(3.00)    -7.089   0.529
    *s           8.629   0.603
    *p          20.123   0.529
    *d           0.000   0.577

  Using partial waves for N as LCAO basis

C-setup:
  name: Carbon
  id: 2f012631b351e3618121587a96c50fca
  Z: 6
  valence: 4
  core: 2
  charge: 0.0
  file: /app/gpaw/datasets/C.PBE
  cutoffs: 0.64(comp), 1.14(filt), 1.14(core), lmax=2
  valence states:
                energy  radius
    2s(2.00)   -13.751   0.635
    2p(2.00)    -5.285   0.635
    *s          13.461   0.635
    *p          21.927   0.635
    *d           0.000   0.635

  Using partial waves for C as LCAO basis

Reference energy: -412395.464894

Spin-paired calculation

Occupation numbers:
  Fermi-Dirac: width=0.0000 eV

Convergence criteria:
  Maximum total energy change: 0.0005 eV / electron
  Maximum integral of absolute density change: 0.0001 electrons
  Maximum integral of absolute eigenstate change: 4e-08 eV^2
  Maximum number of iterations: 150

Symmetries present (total): 1

  ( 1  0  0)
  ( 0  1  0)
  ( 0  0  1)

1 k-point (Gamma)
1 k-point in the irreducible part of the Brillouin zone
       k-points in crystal coordinates                weights
   0:     0.00000000    0.00000000    0.00000000          1/1

Wave functions: Uniform real-space grid
  Kinetic energy operator: 6*3+1=19 point O(h^6) finite-difference Laplacian
  ScaLapack parameters: grid=1x1, blocksize=None 

Eigensolver
   Davidson(niter=1, smin=None, normalize=True) 

Densities:
  Coarse grid: 72*64*72 grid
  Fine grid: 144*128*144 grid
  Total Charge: 0.000000 

Density mixing:
  Method: separate
  Backend: pulay
  Linear mixing parameter: 0.25
  Mixing with 3 old densities
  No damping of long wave oscillations 

Hamiltonian:
  XC and Coulomb potentials evaluated on a 144*128*144 grid
  Using the PBE Exchange-Correlation functional
  Interpolation: tri-quintic (5. degree polynomial)
  Poisson solver: Jacobi solver with 5 multi-grid levels
    Coarsest grid: 9 x 8 x 9 points
    Stencil: 6*3+1=19 point O(h^6) finite-difference Laplacian
    Max iterations: 1000
    Tolerance: 2.000000e-10 

Memory estimate:
  Process memory now: 642.37 MiB
  Calculator: 325.36 MiB
    Density: 113.90 MiB
      Arrays: 64.29 MiB
      Localized functions: 35.07 MiB
      Mixer: 14.54 MiB
    Hamiltonian: 92.51 MiB
      Arrays: 42.05 MiB
      XC: 0.00 MiB
      Poisson: 48.10 MiB
      vbar: 2.35 MiB
    Wavefunctions: 118.96 MiB
      Arrays psit_nG: 50.88 MiB
      Eigensolver: 63.03 MiB
      Projections: 0.01 MiB
      Projectors: 5.04 MiB

Total number of cores used: 1

Number of atoms: 3
Number of atomic orbitals: 21
Number of bands in calculation: 21
Bands to converge: occupied states only
Number of valence electrons: 21

... initialized

Initializing position-dependent things.

Density initialized from atomic densities
Creating initial wave functions:
  21 bands from LCAO basis set

      .--------------------.  
     /|                    |  
    / |                    |  
   /  |                    |  
  /   |                    |  
 *    |                    |  
 |    |                    |  
 |    |     Hf   C         |  
 |    |    N               |  
 |    |                    |  
 |    .--------------------.  
 |   /                    /   
 |  /                    /    
 | /                    /     
 |/                    /      
 *--------------------*       

Positions:
   0 Hf     3.350050    4.891250    4.395000    ( 0.0000,  0.0000,  0.0000)
   1 N      3.350050    3.108750    4.105000    ( 0.0000,  0.0000,  0.0000)
   2 C      5.149950    4.891250    4.105000    ( 0.0000,  0.0000,  0.0000)

Unit cell:
           periodic     x           y           z      points  spacing
  1. axis:    no     8.500000    0.000000    0.000000    72     0.1181
  2. axis:    no     0.000000    8.000000    0.000000    64     0.1250
  3. axis:    no     0.000000    0.000000    8.500000    72     0.1181

  Lengths:   8.500000   8.000000   8.500000
  Angles:   90.000000  90.000000  90.000000

Effective grid spacing dv^(1/3) = 0.1203

                     log10-error:    total        iterations:
           time      wfs    density  energy       fermi  poisson
iter:   1  21:31:25  +2.41   +inf   -18.758491    0      15     
iter:   2  21:31:28  +1.14   +inf   -19.315513    0             
iter:   3  21:31:30  +0.59   +inf   -19.494404    0             
iter:   4  21:31:39  +0.61  -0.70   -16.549645    0      11     
iter:   5  21:31:47  +0.86  -0.77   -15.370076    0      9      
iter:   6  21:31:56  +0.52  -0.97   -14.608428    0      9      
iter:   7  21:32:04  +0.19  -1.19   -14.456688    0      9      
iter:   8  21:32:12  +0.47  -1.49   -14.474317    0      8      
iter:   9  21:32:20  -0.21  -1.69   -14.481228    0      7      
iter:  10  21:32:27  +0.09  -1.78   -14.488692    0      6      
iter:  11  21:32:34  -0.78  -1.71   -14.489182    0      5      
iter:  12  21:32:41  -0.44  -2.02   -14.489976    0      5      
iter:  13  21:32:47  -1.28  -2.17   -14.490251    0      5      
iter:  14  21:32:54  -1.14  -2.37   -14.490323    0      5      
iter:  15  21:33:00  -1.71  -2.65   -14.490806    0      4      
iter:  16  21:33:06  -1.56  -2.79   -14.490925    0      3      
iter:  17  21:33:13  -2.07  -2.88   -14.491250    0      4      
iter:  18  21:33:18  -1.95  -2.98   -14.491389    0      3      
iter:  19  21:33:25  -2.39  -3.02   -14.491511    0      4      
iter:  20  21:33:31  -2.32  -3.34   -14.491479    0      3      
iter:  21  21:33:37  -2.70  -3.38   -14.491580    0      3      
iter:  22  21:33:42  -2.66  -3.55   -14.491563    0      2      
iter:  23  21:33:48  -3.01  -3.51   -14.491603    0      3      
iter:  24  21:33:54  -2.98  -3.69   -14.491666    0      3      
iter:  25  21:33:59  -3.35  -3.98   -14.491607    0      1      
iter:  26  21:34:04  -3.28  -4.01   -14.491731    0      2      
iter:  27  21:34:09  -3.65  -4.20   -14.491531    0      1      
iter:  28  21:34:15  -3.57  -4.16   -14.491690    0      2      
iter:  29  21:34:20  -3.93  -4.32   -14.491545    0      1      
iter:  30  21:34:25  -3.86  -4.33   -14.491648    0      2      
iter:  31  21:34:30  -4.24  -4.32   -14.491554    0      1      
iter:  32  21:34:35  -4.15  -4.49   -14.491775    0      1      
iter:  33  21:34:40  -4.55  -4.57   -14.491644    0      1      
iter:  34  21:34:45  -4.46  -4.57   -14.491568    0      1      
iter:  35  21:34:50  -4.85  -4.51   -14.491708    0      1      
iter:  36  21:34:56  -4.76  -4.56   -14.491717    0      1      
iter:  37  21:35:01  -5.13  -4.63   -14.491637    0      1      
iter:  38  21:35:06  -5.07  -4.71   -14.491792    0      1      
iter:  39  21:35:11  -5.39  -4.89   -14.491642    0      1      
iter:  40  21:35:16  -5.38  -5.21   -14.491610    0      1      
iter:  41  21:35:21  -5.69  -5.16   -14.491580    0      1      
iter:  42  21:35:26  -5.68  -5.19   -14.491581    0      1      
iter:  43  21:35:31  -5.98  -4.98   -14.491576    0      1      
iter:  44  21:35:36  -5.96  -5.25   -14.491583    0      1      
iter:  45  21:35:41  -6.29  -5.26   -14.491585    0      1      
iter:  46  21:35:46  -6.25  -5.23   -14.491586    0      1      
iter:  47  21:35:51  -6.54  -5.32   -14.491593    0      1      
iter:  48  21:35:56  -6.56  -5.46   -14.491584    0      1      
iter:  49  21:36:01  -6.81  -5.50   -14.491587    0      1      
iter:  50  21:36:06  -6.85  -5.56   -14.491581    0      1      
iter:  51  21:36:11  -7.08  -5.60   -14.491595    0      1      
iter:  52  21:36:16  -7.10  -5.46   -14.491569    0      1      
iter:  53  21:36:21  -7.35  -5.70   -14.491578    0      1      
iter:  54  21:36:26  -7.42  -5.61   -14.491573    0      1      

Converged after 54 iterations.

Dipole moment: (-0.924499, 1.208503, 0.331903) |e|*Ang

Energy contributions relative to reference atoms: (reference = -412395.464894)

Kinetic:        +22.032821
Potential:      -18.062336
External:        +0.000000
XC:             -18.308733
Entropy (-ST):   +0.000000
Local:           -0.153325
--------------------------
Free energy:    -14.491573
Extrapolated:   -14.491573

Fermi level: -4.95526

 Band  Eigenvalues  Occupancy
    0    -65.04610    2.00000
    1    -34.39296    2.00000
    2    -34.29104    2.00000
    3    -34.18401    2.00000
    4    -15.78006    2.00000
    5    -12.35014    2.00000
    6     -6.55465    2.00000
    7     -5.57237    2.00000
    8     -5.39395    2.00000
    9     -5.00716    2.00000
   10     -4.95526    1.00000
   11     -3.43988    0.00000
   12     -3.02274    0.00000
   13     -1.28463    0.00000
   14     -0.64689    0.00000
   15      0.52968    0.00000
   16      0.84624    0.00000
   17      1.54072    0.00000
   18      2.20739    0.00000
   19      2.54886    0.00000
   20      3.17099    0.00000

Writing to 3_57799_P1_PBE_zy0_2900.gpw (mode='all')

Timing:                              incl.     excl.
-----------------------------------------------------------
Hamiltonian:                         8.898     0.000   0.0% |
 Atomic:                             0.195     0.001   0.0% |
  XC Correction:                     0.194     0.194   0.1% |
 Calculate atomic Hamiltonians:      0.009     0.009   0.0% |
 Communicate:                        0.000     0.000   0.0% |
 Hartree integrate/restrict:         0.036     0.036   0.0% |
 Initialize Hamiltonian:             0.000     0.000   0.0% |
 Poisson:                            6.475     6.475   2.1% ||
 XC 3D grid:                         2.172     2.172   0.7% |
 vbar:                               0.011     0.011   0.0% |
LCAO initialization:                 0.739     0.489   0.2% |
 LCAO eigensolver:                   0.077     0.000   0.0% |
  Calculate projections:             0.000     0.000   0.0% |
  DenseAtomicCorrection:             0.000     0.000   0.0% |
  Distribute overlap matrix:         0.000     0.000   0.0% |
  Orbital Layouts:                   0.000     0.000   0.0% |
  Potential matrix:                  0.076     0.076   0.0% |
 LCAO to grid:                       0.169     0.169   0.1% |
 Set positions (LCAO WFS):           0.004     0.000   0.0% |
  Basic WFS set positions:           0.000     0.000   0.0% |
  Basis functions set positions:     0.000     0.000   0.0% |
  TCI: Calculate S, T, P:            0.003     0.003   0.0% |
SCF-cycle:                         303.340     0.021   0.0% |
 Davidson:                         112.802    20.555   6.5% |--|
  Apply hamiltonian:                 8.703     8.703   2.8% ||
  Subspace diag:                    32.121     0.005   0.0% |
   calc_h_matrix:                   15.937     7.237   2.3% ||
    Apply hamiltonian:               8.700     8.700   2.8% ||
   diagonalize:                      0.012     0.012   0.0% |
   rotate_psi:                      16.167    16.167   5.1% |-|
  calc. matrices:                   35.258    26.569   8.5% |--|
   Apply hamiltonian:                8.689     8.689   2.8% ||
  diagonalize:                       0.044     0.044   0.0% |
  rotate_psi:                       16.121    16.121   5.1% |-|
 Density:                            4.115     0.001   0.0% |
  Atomic density matrices:           0.035     0.035   0.0% |
  Mix:                               2.947     2.947   0.9% |
  Multipole moments:                 0.009     0.009   0.0% |
  Pseudo density:                    1.123     1.122   0.4% |
   Symmetrize density:               0.001     0.001   0.0% |
 Hamiltonian:                      186.201     0.006   0.0% |
  Atomic:                            9.966     0.044   0.0% |
   XC Correction:                    9.922     9.922   3.2% ||
  Calculate atomic Hamiltonians:     0.443     0.443   0.1% |
  Communicate:                       0.000     0.000   0.0% |
  Hartree integrate/restrict:        1.734     1.734   0.6% |
  Poisson:                          62.013    62.013  19.7% |-------|
  XC 3D grid:                      111.723   111.723  35.6% |-------------|
  vbar:                              0.316     0.316   0.1% |
 Orthonormalize:                     0.202     0.000   0.0% |
  calc_s_matrix:                     0.074     0.074   0.0% |
  inverse-cholesky:                  0.000     0.000   0.0% |
  projections:                       0.029     0.029   0.0% |
  rotate_psi_s:                      0.098     0.098   0.0% |
Set symmetry:                        0.001     0.001   0.0% |
Other:                               1.127     1.127   0.4% |
-----------------------------------------------------------
Total:                                       314.105 100.0%

Memory usage: 642.37 MiB
Date: Mon Aug 20 21:36:27 2018
