
  ___ ___ ___ _ _ _  
 |   |   |_  | | | | 
 | | | | | . | | | | 
 |__ |  _|___|_____|  1.4.0
 |___|_|             

User:   ???@3fe09ff0504a
Date:   Mon Aug 20 21:15:27 2018
Arch:   x86_64
Pid:    1882
Python: 3.7.0
gpaw:   /app/gpaw/software/venv/lib/python3.7/site-packages/gpaw
_gpaw:  /app/gpaw/software/venv/lib/python3.7/site-packages/
        _gpaw.cpython-37m-x86_64-linux-gnu.so
ase:    /app/gpaw/software/venv/lib/python3.7/site-packages/ase (version 3.16.2)
numpy:  /app/gpaw/software/venv/lib/python3.7/site-packages/numpy (version 1.15.0)
scipy:  /app/gpaw/software/venv/lib/python3.7/site-packages/scipy (version 1.1.0)
units:  Angstrom and eV
cores:  1

Input parameters:
  gpts: [72 64 72]
  maxiter: 150
  mixer: {backend: pulay,
          beta: None,
          method: separate,
          nmaxold: None,
          weight: None}
  xc: PBE

System changes: positions, numbers, cell, pbc, initial_charges, initial_magmoms 

Initialize ...

Hf-setup:
  name: Hafnium
  id: d03a45b6fa1dd7f07e443d1513edf499
  Z: 72
  valence: 12
  core: 60
  charge: 0.0
  file: /app/gpaw/datasets/Hf.PBE
  cutoffs: 1.30(comp), 2.36(filt), 4.02(core), lmax=2
  valence states:
                energy  radius
    5s(2.00)   -66.831   1.397
    6s(2.00)    -5.097   1.397
    5p(6.00)   -35.599   1.307
    6p(0.00)    -1.401   1.307
    5d(2.00)    -2.699   1.334
    *d          24.513   1.334

  Using partial waves for Hf as LCAO basis

N-setup:
  name: Nitrogen
  id: 45c8c9c739e7b131496b9fd2deb94bff
  Z: 7
  valence: 5
  core: 2
  charge: 0.0
  file: /app/gpaw/datasets/N.PBE
  cutoffs: 0.58(comp), 1.11(filt), 0.96(core), lmax=2
  valence states:
                energy  radius
    2s(2.00)   -18.583   0.603
    2p(3.00)    -7.089   0.529
    *s           8.629   0.603
    *p          20.123   0.529
    *d           0.000   0.577

  Using partial waves for N as LCAO basis

C-setup:
  name: Carbon
  id: 2f012631b351e3618121587a96c50fca
  Z: 6
  valence: 4
  core: 2
  charge: 0.0
  file: /app/gpaw/datasets/C.PBE
  cutoffs: 0.64(comp), 1.14(filt), 1.14(core), lmax=2
  valence states:
                energy  radius
    2s(2.00)   -13.751   0.635
    2p(2.00)    -5.285   0.635
    *s          13.461   0.635
    *p          21.927   0.635
    *d           0.000   0.635

  Using partial waves for C as LCAO basis

Reference energy: -412395.464894

Spin-paired calculation

Occupation numbers:
  Fermi-Dirac: width=0.0000 eV

Convergence criteria:
  Maximum total energy change: 0.0005 eV / electron
  Maximum integral of absolute density change: 0.0001 electrons
  Maximum integral of absolute eigenstate change: 4e-08 eV^2
  Maximum number of iterations: 150

Symmetries present (total): 1

  ( 1  0  0)
  ( 0  1  0)
  ( 0  0  1)

1 k-point (Gamma)
1 k-point in the irreducible part of the Brillouin zone
       k-points in crystal coordinates                weights
   0:     0.00000000    0.00000000    0.00000000          1/1

Wave functions: Uniform real-space grid
  Kinetic energy operator: 6*3+1=19 point O(h^6) finite-difference Laplacian
  ScaLapack parameters: grid=1x1, blocksize=None 

Eigensolver
   Davidson(niter=1, smin=None, normalize=True) 

Densities:
  Coarse grid: 72*64*72 grid
  Fine grid: 144*128*144 grid
  Total Charge: 0.000000 

Density mixing:
  Method: separate
  Backend: pulay
  Linear mixing parameter: 0.25
  Mixing with 3 old densities
  No damping of long wave oscillations 

Hamiltonian:
  XC and Coulomb potentials evaluated on a 144*128*144 grid
  Using the PBE Exchange-Correlation functional
  Interpolation: tri-quintic (5. degree polynomial)
  Poisson solver: Jacobi solver with 5 multi-grid levels
    Coarsest grid: 9 x 8 x 9 points
    Stencil: 6*3+1=19 point O(h^6) finite-difference Laplacian
    Max iterations: 1000
    Tolerance: 2.000000e-10 

Memory estimate:
  Process memory now: 642.37 MiB
  Calculator: 325.36 MiB
    Density: 113.90 MiB
      Arrays: 64.29 MiB
      Localized functions: 35.07 MiB
      Mixer: 14.54 MiB
    Hamiltonian: 92.51 MiB
      Arrays: 42.05 MiB
      XC: 0.00 MiB
      Poisson: 48.10 MiB
      vbar: 2.35 MiB
    Wavefunctions: 118.96 MiB
      Arrays psit_nG: 50.88 MiB
      Eigensolver: 63.03 MiB
      Projections: 0.01 MiB
      Projectors: 5.04 MiB

Total number of cores used: 1

Number of atoms: 3
Number of atomic orbitals: 21
Number of bands in calculation: 21
Bands to converge: occupied states only
Number of valence electrons: 21

... initialized

Initializing position-dependent things.

Density initialized from atomic densities
Creating initial wave functions:
  21 bands from LCAO basis set

      .--------------------.  
     /|                    |  
    / |                    |  
   /  |                    |  
  /   |                    |  
 *    |                    |  
 |    |                    |  
 |    |     Hf   C         |  
 |    |    N               |  
 |    |                    |  
 |    .--------------------.  
 |   /                    /   
 |  /                    /    
 | /                    /     
 |/                    /      
 *--------------------*       

Positions:
   0 Hf     3.350050    4.891250    4.380000    ( 0.0000,  0.0000,  0.0000)
   1 N      3.350050    3.108750    4.120000    ( 0.0000,  0.0000,  0.0000)
   2 C      5.149950    4.891250    4.120000    ( 0.0000,  0.0000,  0.0000)

Unit cell:
           periodic     x           y           z      points  spacing
  1. axis:    no     8.500000    0.000000    0.000000    72     0.1181
  2. axis:    no     0.000000    8.000000    0.000000    64     0.1250
  3. axis:    no     0.000000    0.000000    8.500000    72     0.1181

  Lengths:   8.500000   8.000000   8.500000
  Angles:   90.000000  90.000000  90.000000

Effective grid spacing dv^(1/3) = 0.1203

                     log10-error:    total        iterations:
           time      wfs    density  energy       fermi  poisson
iter:   1  21:15:40  +2.41   +inf   -18.723595    0      15     
iter:   2  21:15:42  +1.15   +inf   -19.287892    0             
iter:   3  21:15:44  +0.59   +inf   -19.469106    0             
iter:   4  21:15:53  +0.61  -0.70   -16.518161    0      11     
iter:   5  21:16:02  +0.85  -0.77   -15.348262    0      9      
iter:   6  21:16:10  +0.52  -0.97   -14.582859    0      9      
iter:   7  21:16:19  +0.19  -1.19   -14.434602    0      9      
iter:   8  21:16:27  +0.48  -1.49   -14.453721    0      8      
iter:   9  21:16:34  -0.22  -1.69   -14.459611    0      7      
iter:  10  21:16:41  +0.10  -1.96   -14.463521    0      5      
iter:  11  21:16:48  -0.77  -2.21   -14.465712    0      5      
iter:  12  21:16:54  -0.60  -2.33   -14.467268    0      5      
iter:  13  21:17:01  -1.25  -2.50   -14.468760    0      5      
iter:  14  21:17:08  -1.09  -2.44   -14.468760    0      4      
iter:  15  21:17:14  -1.63  -2.69   -14.469170    0      5      
iter:  16  21:17:21  -1.63  -2.96   -14.469433    0      4      
iter:  17  21:17:26  -2.01  -3.18   -14.469579    0      3      
iter:  18  21:17:32  -1.98  -3.20   -14.469684    0      3      
iter:  19  21:17:38  -2.32  -3.37   -14.469775    0      3      
iter:  20  21:17:44  -2.31  -3.54   -14.469836    0      3      
iter:  21  21:17:50  -2.64  -3.71   -14.469869    0      3      
iter:  22  21:17:56  -2.62  -3.82   -14.469965    0      2      
iter:  23  21:18:01  -2.94  -3.92   -14.469933    0      2      
iter:  24  21:18:06  -2.92  -4.02   -14.469946    0      2      
iter:  25  21:18:12  -3.25  -4.04   -14.469979    0      2      
iter:  26  21:18:18  -3.23  -4.07   -14.469970    0      3      
iter:  27  21:18:23  -3.57  -4.47   -14.469496    0      1      
iter:  28  21:18:28  -3.50  -4.36   -14.469910    0      2      
iter:  29  21:18:33  -3.87  -4.51   -14.469843    0      1      
iter:  30  21:18:39  -3.78  -4.42   -14.469943    0      2      
iter:  31  21:18:44  -4.17  -4.68   -14.469836    0      1      
iter:  32  21:18:49  -4.06  -4.63   -14.469971    0      2      
iter:  33  21:18:54  -4.50  -4.76   -14.469745    0      1      
iter:  34  21:18:59  -4.34  -4.87   -14.469986    0      1      
iter:  35  21:19:04  -4.81  -5.23   -14.469868    0      1      
iter:  36  21:19:10  -4.65  -5.10   -14.469842    0      1      
iter:  37  21:19:15  -5.10  -4.92   -14.469920    0      1      
iter:  38  21:19:20  -4.94  -5.01   -14.469779    0      1      
iter:  39  21:19:25  -5.35  -4.65   -14.469897    0      1      
iter:  40  21:19:30  -5.20  -4.75   -14.469927    0      1      
iter:  41  21:19:35  -5.66  -4.80   -14.469959    0      2      
iter:  42  21:19:40  -5.61  -4.97   -14.469764    0      1      
iter:  43  21:19:45  -5.92  -5.43   -14.469842    0      1      
iter:  44  21:19:50  -5.94  -5.46   -14.469871    0      1      
iter:  45  21:19:55  -6.20  -5.58   -14.469887    0      1      
iter:  46  21:20:00  -6.23  -5.84   -14.469875    0      1      
iter:  47  21:20:05  -6.48  -6.09   -14.469873    0      1      
iter:  48  21:20:11  -6.52  -6.39   -14.469864    0      1      
iter:  49  21:20:16  -6.75  -6.33   -14.469863    0      1      
iter:  50  21:20:21  -6.79  -6.14   -14.469862    0      1      
iter:  51  21:20:26  -7.01  -6.02   -14.469862    0      1      
iter:  52  21:20:31  -7.05  -5.95   -14.469862    0      1      
iter:  53  21:20:36  -7.27  -5.94   -14.469862    0      1      
iter:  54  21:20:41  -7.31  -5.70   -14.469863    0      1      
iter:  55  21:20:46  -7.52  -5.76   -14.469870    0      1      

Converged after 55 iterations.

Dipole moment: (-0.925650, 1.207892, 0.297770) |e|*Ang

Energy contributions relative to reference atoms: (reference = -412395.464894)

Kinetic:        +22.873680
Potential:      -18.736363
External:        +0.000000
XC:             -18.457706
Entropy (-ST):   +0.000000
Local:           -0.149481
--------------------------
Free energy:    -14.469870
Extrapolated:   -14.469870

Fermi level: -4.94344

 Band  Eigenvalues  Occupancy
    0    -65.02279    2.00000
    1    -34.37969    2.00000
    2    -34.26850    2.00000
    3    -34.17633    2.00000
    4    -15.78165    2.00000
    5    -12.34302    2.00000
    6     -6.57275    2.00000
    7     -5.58486    2.00000
    8     -5.40097    2.00000
    9     -5.02122    2.00000
   10     -4.94344    1.00000
   11     -3.44915    0.00000
   12     -3.01464    0.00000
   13     -1.27524    0.00000
   14     -0.62746    0.00000
   15      0.56483    0.00000
   16      0.87213    0.00000
   17      1.57281    0.00000
   18      2.22751    0.00000
   19      2.56622    0.00000
   20      3.17166    0.00000

Writing to 3_57799_P1_PBE_zy0_2600.gpw (mode='all')

Timing:                              incl.     excl.
-----------------------------------------------------------
Hamiltonian:                         8.872     0.000   0.0% |
 Atomic:                             0.194     0.001   0.0% |
  XC Correction:                     0.194     0.194   0.1% |
 Calculate atomic Hamiltonians:      0.009     0.009   0.0% |
 Communicate:                        0.000     0.000   0.0% |
 Hartree integrate/restrict:         0.034     0.034   0.0% |
 Initialize Hamiltonian:             0.000     0.000   0.0% |
 Poisson:                            6.444     6.444   2.0% ||
 XC 3D grid:                         2.179     2.179   0.7% |
 vbar:                               0.011     0.011   0.0% |
LCAO initialization:                 0.791     0.542   0.2% |
 LCAO eigensolver:                   0.076     0.000   0.0% |
  Calculate projections:             0.000     0.000   0.0% |
  DenseAtomicCorrection:             0.000     0.000   0.0% |
  Distribute overlap matrix:         0.000     0.000   0.0% |
  Orbital Layouts:                   0.000     0.000   0.0% |
  Potential matrix:                  0.076     0.076   0.0% |
 LCAO to grid:                       0.169     0.169   0.1% |
 Set positions (LCAO WFS):           0.004     0.000   0.0% |
  Basic WFS set positions:           0.000     0.000   0.0% |
  Basis functions set positions:     0.000     0.000   0.0% |
  TCI: Calculate S, T, P:            0.003     0.003   0.0% |
SCF-cycle:                         308.424     0.021   0.0% |
 Davidson:                         114.978    20.903   6.5% |--|
  Apply hamiltonian:                 8.884     8.884   2.8% ||
  Subspace diag:                    32.774     0.005   0.0% |
   calc_h_matrix:                   16.257     7.381   2.3% ||
    Apply hamiltonian:               8.875     8.875   2.8% ||
   diagonalize:                      0.012     0.012   0.0% |
   rotate_psi:                      16.499    16.499   5.2% |-|
  calc. matrices:                   35.947    27.085   8.5% |--|
   Apply hamiltonian:                8.862     8.862   2.8% ||
  diagonalize:                       0.044     0.044   0.0% |
  rotate_psi:                       16.426    16.426   5.1% |-|
 Density:                            4.211     0.001   0.0% |
  Atomic density matrices:           0.036     0.036   0.0% |
  Mix:                               3.010     3.010   0.9% |
  Multipole moments:                 0.009     0.009   0.0% |
  Pseudo density:                    1.155     1.154   0.4% |
   Symmetrize density:               0.001     0.001   0.0% |
 Hamiltonian:                      189.013     0.006   0.0% |
  Atomic:                           10.177     0.045   0.0% |
   XC Correction:                   10.132    10.132   3.2% ||
  Calculate atomic Hamiltonians:     0.452     0.452   0.1% |
  Communicate:                       0.000     0.000   0.0% |
  Hartree integrate/restrict:        1.760     1.760   0.6% |
  Poisson:                          62.431    62.431  19.6% |-------|
  XC 3D grid:                      113.859   113.859  35.7% |-------------|
  vbar:                              0.328     0.328   0.1% |
 Orthonormalize:                     0.201     0.000   0.0% |
  calc_s_matrix:                     0.073     0.073   0.0% |
  inverse-cholesky:                  0.000     0.000   0.0% |
  projections:                       0.028     0.028   0.0% |
  rotate_psi_s:                      0.099     0.099   0.0% |
Set symmetry:                        0.001     0.001   0.0% |
Other:                               1.117     1.117   0.3% |
-----------------------------------------------------------
Total:                                       319.204 100.0%

Memory usage: 642.37 MiB
Date: Mon Aug 20 21:20:46 2018
