
  ___ ___ ___ _ _ _  
 |   |   |_  | | | | 
 | | | | | . | | | | 
 |__ |  _|___|_____|  1.4.0
 |___|_|             

User:   ???@3fe09ff0504a
Date:   Mon Aug 20 19:54:30 2018
Arch:   x86_64
Pid:    1882
Python: 3.7.0
gpaw:   /app/gpaw/software/venv/lib/python3.7/site-packages/gpaw
_gpaw:  /app/gpaw/software/venv/lib/python3.7/site-packages/
        _gpaw.cpython-37m-x86_64-linux-gnu.so
ase:    /app/gpaw/software/venv/lib/python3.7/site-packages/ase (version 3.16.2)
numpy:  /app/gpaw/software/venv/lib/python3.7/site-packages/numpy (version 1.15.0)
scipy:  /app/gpaw/software/venv/lib/python3.7/site-packages/scipy (version 1.1.0)
units:  Angstrom and eV
cores:  1

Input parameters:
  gpts: [72 64 72]
  maxiter: 150
  mixer: {backend: pulay,
          beta: None,
          method: separate,
          nmaxold: None,
          weight: None}
  xc: PBE

System changes: positions, numbers, cell, pbc, initial_charges, initial_magmoms 

Initialize ...

Hf-setup:
  name: Hafnium
  id: d03a45b6fa1dd7f07e443d1513edf499
  Z: 72
  valence: 12
  core: 60
  charge: 0.0
  file: /app/gpaw/datasets/Hf.PBE
  cutoffs: 1.30(comp), 2.36(filt), 4.02(core), lmax=2
  valence states:
                energy  radius
    5s(2.00)   -66.831   1.397
    6s(2.00)    -5.097   1.397
    5p(6.00)   -35.599   1.307
    6p(0.00)    -1.401   1.307
    5d(2.00)    -2.699   1.334
    *d          24.513   1.334

  Using partial waves for Hf as LCAO basis

N-setup:
  name: Nitrogen
  id: 45c8c9c739e7b131496b9fd2deb94bff
  Z: 7
  valence: 5
  core: 2
  charge: 0.0
  file: /app/gpaw/datasets/N.PBE
  cutoffs: 0.58(comp), 1.11(filt), 0.96(core), lmax=2
  valence states:
                energy  radius
    2s(2.00)   -18.583   0.603
    2p(3.00)    -7.089   0.529
    *s           8.629   0.603
    *p          20.123   0.529
    *d           0.000   0.577

  Using partial waves for N as LCAO basis

C-setup:
  name: Carbon
  id: 2f012631b351e3618121587a96c50fca
  Z: 6
  valence: 4
  core: 2
  charge: 0.0
  file: /app/gpaw/datasets/C.PBE
  cutoffs: 0.64(comp), 1.14(filt), 1.14(core), lmax=2
  valence states:
                energy  radius
    2s(2.00)   -13.751   0.635
    2p(2.00)    -5.285   0.635
    *s          13.461   0.635
    *p          21.927   0.635
    *d           0.000   0.635

  Using partial waves for C as LCAO basis

Reference energy: -412395.464894

Spin-paired calculation

Occupation numbers:
  Fermi-Dirac: width=0.0000 eV

Convergence criteria:
  Maximum total energy change: 0.0005 eV / electron
  Maximum integral of absolute density change: 0.0001 electrons
  Maximum integral of absolute eigenstate change: 4e-08 eV^2
  Maximum number of iterations: 150

Symmetries present (total): 1

  ( 1  0  0)
  ( 0  1  0)
  ( 0  0  1)

1 k-point (Gamma)
1 k-point in the irreducible part of the Brillouin zone
       k-points in crystal coordinates                weights
   0:     0.00000000    0.00000000    0.00000000          1/1

Wave functions: Uniform real-space grid
  Kinetic energy operator: 6*3+1=19 point O(h^6) finite-difference Laplacian
  ScaLapack parameters: grid=1x1, blocksize=None 

Eigensolver
   Davidson(niter=1, smin=None, normalize=True) 

Densities:
  Coarse grid: 72*64*72 grid
  Fine grid: 144*128*144 grid
  Total Charge: 0.000000 

Density mixing:
  Method: separate
  Backend: pulay
  Linear mixing parameter: 0.25
  Mixing with 3 old densities
  No damping of long wave oscillations 

Hamiltonian:
  XC and Coulomb potentials evaluated on a 144*128*144 grid
  Using the PBE Exchange-Correlation functional
  Interpolation: tri-quintic (5. degree polynomial)
  Poisson solver: Jacobi solver with 5 multi-grid levels
    Coarsest grid: 9 x 8 x 9 points
    Stencil: 6*3+1=19 point O(h^6) finite-difference Laplacian
    Max iterations: 1000
    Tolerance: 2.000000e-10 

Memory estimate:
  Process memory now: 598.41 MiB
  Calculator: 325.36 MiB
    Density: 113.90 MiB
      Arrays: 64.29 MiB
      Localized functions: 35.07 MiB
      Mixer: 14.54 MiB
    Hamiltonian: 92.51 MiB
      Arrays: 42.05 MiB
      XC: 0.00 MiB
      Poisson: 48.10 MiB
      vbar: 2.35 MiB
    Wavefunctions: 118.96 MiB
      Arrays psit_nG: 50.88 MiB
      Eigensolver: 63.03 MiB
      Projections: 0.01 MiB
      Projectors: 5.04 MiB

Total number of cores used: 1

Number of atoms: 3
Number of atomic orbitals: 21
Number of bands in calculation: 21
Bands to converge: occupied states only
Number of valence electrons: 21

... initialized

Initializing position-dependent things.

Density initialized from atomic densities
Creating initial wave functions:
  21 bands from LCAO basis set

      .--------------------.  
     /|                    |  
    / |                    |  
   /  |                    |  
  /   |                    |  
 *    |                    |  
 |    |                    |  
 |    |     Hf   C         |  
 |    |    N               |  
 |    |                    |  
 |    .--------------------.  
 |   /                    /   
 |  /                    /    
 | /                    /     
 |/                    /      
 *--------------------*       

Positions:
   0 Hf     3.350050    4.891250    4.305000    ( 0.0000,  0.0000,  0.0000)
   1 N      3.350050    3.108750    4.195000    ( 0.0000,  0.0000,  0.0000)
   2 C      5.149950    4.891250    4.195000    ( 0.0000,  0.0000,  0.0000)

Unit cell:
           periodic     x           y           z      points  spacing
  1. axis:    no     8.500000    0.000000    0.000000    72     0.1181
  2. axis:    no     0.000000    8.000000    0.000000    64     0.1250
  3. axis:    no     0.000000    0.000000    8.500000    72     0.1181

  Lengths:   8.500000   8.000000   8.500000
  Angles:   90.000000  90.000000  90.000000

Effective grid spacing dv^(1/3) = 0.1203

                     log10-error:    total        iterations:
           time      wfs    density  energy       fermi  poisson
iter:   1  19:54:43  +2.41   +inf   -18.591841    0      15     
iter:   2  19:54:45  +1.17   +inf   -19.181063    0             
iter:   3  19:54:47  +0.60   +inf   -19.371340    0             
iter:   4  19:54:56  +0.61  -0.70   -16.399239    0      11     
iter:   5  19:55:05  +0.85  -0.77   -15.259410    0      9      
iter:   6  19:55:14  +0.53  -0.97   -14.481437    0      9      
iter:   7  19:55:22  +0.22  -1.20   -14.345961    0      9      
iter:   8  19:55:30  +0.51  -1.50   -14.369315    0      7      
iter:   9  19:55:37  -0.23  -1.68   -14.374425    0      7      
iter:  10  19:55:44  +0.13  -1.97   -14.378656    0      5      
iter:  11  19:55:51  -0.78  -2.22   -14.380570    0      5      
iter:  12  19:55:57  -0.63  -2.43   -14.382168    0      4      
iter:  13  19:56:04  -1.23  -2.61   -14.383187    0      4      
iter:  14  19:56:10  -1.10  -2.66   -14.383865    0      5      
iter:  15  19:56:17  -1.70  -3.10   -14.383790    0      4      
iter:  16  19:56:23  -1.46  -3.19   -14.384236    0      3      
iter:  17  19:56:29  -2.12  -3.25   -14.384545    0      3      
iter:  18  19:56:35  -1.83  -3.23   -14.384757    0      3      
iter:  19  19:56:41  -2.48  -3.45   -14.384944    0      3      
iter:  20  19:56:46  -2.24  -3.78   -14.384985    0      2      
iter:  21  19:56:52  -2.80  -3.85   -14.384982    0      3      
iter:  22  19:56:57  -2.64  -4.34   -14.384558    0      1      
iter:  23  19:57:03  -3.09  -4.24   -14.384859    0      2      
iter:  24  19:57:08  -2.96  -4.20   -14.384720    0      1      
iter:  25  19:57:13  -3.38  -4.05   -14.384789    0      1      
iter:  26  19:57:19  -3.25  -3.98   -14.384913    0      2      
iter:  27  19:57:24  -3.68  -4.04   -14.384791    0      2      
iter:  28  19:57:30  -3.55  -3.89   -14.384559    0      2      
iter:  29  19:57:35  -3.87  -3.70   -14.384998    0      3      
iter:  30  19:57:41  -4.01  -4.09   -14.384948    0      2      
iter:  31  19:57:47  -4.24  -4.18   -14.384946    0      2      
iter:  32  19:57:52  -4.33  -4.37   -14.384871    0      2      
iter:  33  19:57:58  -4.54  -4.58   -14.384853    0      2      
iter:  34  19:58:03  -4.61  -4.93   -14.384844    0      1      
iter:  35  19:58:08  -4.84  -5.09   -14.384812    0      1      
iter:  36  19:58:13  -4.89  -5.23   -14.384824    0      1      
iter:  37  19:58:18  -5.12  -5.49   -14.384847    0      1      
iter:  38  19:58:23  -5.17  -5.40   -14.384844    0      1      
iter:  39  19:58:28  -5.40  -5.37   -14.384832    0      1      
iter:  40  19:58:33  -5.44  -5.22   -14.384857    0      1      
iter:  41  19:58:38  -5.68  -5.24   -14.384852    0      1      
iter:  42  19:58:43  -5.70  -5.21   -14.384825    0      1      
iter:  43  19:58:48  -5.96  -5.12   -14.384815    0      1      
iter:  44  19:58:54  -5.93  -5.04   -14.384897    0      1      
iter:  45  19:58:59  -6.28  -5.20   -14.384922    0      1      
iter:  46  19:59:04  -6.25  -5.45   -14.384854    0      1      
iter:  47  19:59:09  -6.58  -5.51   -14.384833    0      1      
iter:  48  19:59:14  -6.53  -5.59   -14.384831    0      1      
iter:  49  19:59:19  -6.82  -5.64   -14.384831    0      1      
iter:  50  19:59:24  -6.78  -6.02   -14.384838    0      1      
iter:  51  19:59:29  -7.09  -6.08   -14.384838    0      1      
iter:  52  19:59:34  -7.06  -6.08   -14.384837    0      1      
iter:  53  19:59:39  -7.35  -6.08   -14.384840    0      1      
iter:  54  19:59:44  -7.32  -6.19   -14.384841    0      1      
iter:  55  19:59:49  -7.61  -6.64   -14.384832    0      1      

Converged after 55 iterations.

Dipole moment: (-0.928971, 1.205112, 0.126180) |e|*Ang

Energy contributions relative to reference atoms: (reference = -412395.464894)

Kinetic:        +25.777333
Potential:      -21.060577
External:        +0.000000
XC:             -18.966618
Entropy (-ST):   +0.000000
Local:           -0.134970
--------------------------
Free energy:    -14.384832
Extrapolated:   -14.384832

Fermi level: -4.90367

 Band  Eigenvalues  Occupancy
    0    -64.94553    2.00000
    1    -34.33680    2.00000
    2    -34.19280    2.00000
    3    -34.15457    2.00000
    4    -15.78630    2.00000
    5    -12.31845    2.00000
    6     -6.63554    2.00000
    7     -5.62937    2.00000
    8     -5.42602    2.00000
    9     -5.06936    2.00000
   10     -4.90367    1.00000
   11     -3.48028    0.00000
   12     -2.98741    0.00000
   13     -1.24414    0.00000
   14     -0.56145    0.00000
   15      0.68622    0.00000
   16      0.95955    0.00000
   17      1.67390    0.00000
   18      2.29513    0.00000
   19      2.63886    0.00000
   20      3.17632    0.00000

Writing to 3_57799_P1_PBE_zy0_11.gpw (mode='all')

Timing:                              incl.     excl.
-----------------------------------------------------------
Hamiltonian:                         8.921     0.000   0.0% |
 Atomic:                             0.197     0.001   0.0% |
  XC Correction:                     0.196     0.196   0.1% |
 Calculate atomic Hamiltonians:      0.009     0.009   0.0% |
 Communicate:                        0.000     0.000   0.0% |
 Hartree integrate/restrict:         0.035     0.035   0.0% |
 Initialize Hamiltonian:             0.000     0.000   0.0% |
 Poisson:                            6.492     6.492   2.0% ||
 XC 3D grid:                         2.177     2.177   0.7% |
 vbar:                               0.011     0.011   0.0% |
LCAO initialization:                 0.828     0.578   0.2% |
 LCAO eigensolver:                   0.076     0.000   0.0% |
  Calculate projections:             0.000     0.000   0.0% |
  DenseAtomicCorrection:             0.000     0.000   0.0% |
  Distribute overlap matrix:         0.000     0.000   0.0% |
  Orbital Layouts:                   0.000     0.000   0.0% |
  Potential matrix:                  0.076     0.076   0.0% |
 LCAO to grid:                       0.170     0.170   0.1% |
 Set positions (LCAO WFS):           0.004     0.000   0.0% |
  Basic WFS set positions:           0.000     0.000   0.0% |
  Basis functions set positions:     0.000     0.000   0.0% |
  TCI: Calculate S, T, P:            0.003     0.003   0.0% |
SCF-cycle:                         309.006     0.022   0.0% |
 Davidson:                         116.923    21.185   6.6% |--|
  Apply hamiltonian:                 8.965     8.965   2.8% ||
  Subspace diag:                    33.487     0.005   0.0% |
   calc_h_matrix:                   16.523     7.551   2.4% ||
    Apply hamiltonian:               8.972     8.972   2.8% ||
   diagonalize:                      0.012     0.012   0.0% |
   rotate_psi:                      16.947    16.947   5.3% |-|
  calc. matrices:                   36.348    27.402   8.6% |--|
   Apply hamiltonian:                8.946     8.946   2.8% ||
  diagonalize:                       0.045     0.045   0.0% |
  rotate_psi:                       16.894    16.894   5.3% |-|
 Density:                            4.268     0.001   0.0% |
  Atomic density matrices:           0.036     0.036   0.0% |
  Mix:                               3.052     3.052   1.0% |
  Multipole moments:                 0.009     0.009   0.0% |
  Pseudo density:                    1.169     1.168   0.4% |
   Symmetrize density:               0.001     0.001   0.0% |
 Hamiltonian:                      187.591     0.006   0.0% |
  Atomic:                           10.264     0.054   0.0% |
   XC Correction:                   10.210    10.210   3.2% ||
  Calculate atomic Hamiltonians:     0.454     0.454   0.1% |
  Communicate:                       0.000     0.000   0.0% |
  Hartree integrate/restrict:        1.794     1.794   0.6% |
  Poisson:                          60.697    60.697  19.0% |-------|
  XC 3D grid:                      114.046   114.046  35.7% |-------------|
  vbar:                              0.330     0.330   0.1% |
 Orthonormalize:                     0.201     0.000   0.0% |
  calc_s_matrix:                     0.073     0.073   0.0% |
  inverse-cholesky:                  0.000     0.000   0.0% |
  projections:                       0.028     0.028   0.0% |
  rotate_psi_s:                      0.100     0.100   0.0% |
Set symmetry:                        0.001     0.001   0.0% |
Other:                               1.132     1.132   0.4% |
-----------------------------------------------------------
Total:                                       319.887 100.0%

Memory usage: 604.35 MiB
Date: Mon Aug 20 19:59:50 2018
