
  ___ ___ ___ _ _ _  
 |   |   |_  | | | | 
 | | | | | . | | | | 
 |__ |  _|___|_____|  1.4.0
 |___|_|             

User:   ???@3fe09ff0504a
Date:   Mon Aug 20 21:20:46 2018
Arch:   x86_64
Pid:    1882
Python: 3.7.0
gpaw:   /app/gpaw/software/venv/lib/python3.7/site-packages/gpaw
_gpaw:  /app/gpaw/software/venv/lib/python3.7/site-packages/
        _gpaw.cpython-37m-x86_64-linux-gnu.so
ase:    /app/gpaw/software/venv/lib/python3.7/site-packages/ase (version 3.16.2)
numpy:  /app/gpaw/software/venv/lib/python3.7/site-packages/numpy (version 1.15.0)
scipy:  /app/gpaw/software/venv/lib/python3.7/site-packages/scipy (version 1.1.0)
units:  Angstrom and eV
cores:  1

Input parameters:
  gpts: [72 64 72]
  maxiter: 150
  mixer: {backend: pulay,
          beta: None,
          method: separate,
          nmaxold: None,
          weight: None}
  xc: PBE

System changes: positions, numbers, cell, pbc, initial_charges, initial_magmoms 

Initialize ...

Hf-setup:
  name: Hafnium
  id: d03a45b6fa1dd7f07e443d1513edf499
  Z: 72
  valence: 12
  core: 60
  charge: 0.0
  file: /app/gpaw/datasets/Hf.PBE
  cutoffs: 1.30(comp), 2.36(filt), 4.02(core), lmax=2
  valence states:
                energy  radius
    5s(2.00)   -66.831   1.397
    6s(2.00)    -5.097   1.397
    5p(6.00)   -35.599   1.307
    6p(0.00)    -1.401   1.307
    5d(2.00)    -2.699   1.334
    *d          24.513   1.334

  Using partial waves for Hf as LCAO basis

N-setup:
  name: Nitrogen
  id: 45c8c9c739e7b131496b9fd2deb94bff
  Z: 7
  valence: 5
  core: 2
  charge: 0.0
  file: /app/gpaw/datasets/N.PBE
  cutoffs: 0.58(comp), 1.11(filt), 0.96(core), lmax=2
  valence states:
                energy  radius
    2s(2.00)   -18.583   0.603
    2p(3.00)    -7.089   0.529
    *s           8.629   0.603
    *p          20.123   0.529
    *d           0.000   0.577

  Using partial waves for N as LCAO basis

C-setup:
  name: Carbon
  id: 2f012631b351e3618121587a96c50fca
  Z: 6
  valence: 4
  core: 2
  charge: 0.0
  file: /app/gpaw/datasets/C.PBE
  cutoffs: 0.64(comp), 1.14(filt), 1.14(core), lmax=2
  valence states:
                energy  radius
    2s(2.00)   -13.751   0.635
    2p(2.00)    -5.285   0.635
    *s          13.461   0.635
    *p          21.927   0.635
    *d           0.000   0.635

  Using partial waves for C as LCAO basis

Reference energy: -412395.464894

Spin-paired calculation

Occupation numbers:
  Fermi-Dirac: width=0.0000 eV

Convergence criteria:
  Maximum total energy change: 0.0005 eV / electron
  Maximum integral of absolute density change: 0.0001 electrons
  Maximum integral of absolute eigenstate change: 4e-08 eV^2
  Maximum number of iterations: 150

Symmetries present (total): 1

  ( 1  0  0)
  ( 0  1  0)
  ( 0  0  1)

1 k-point (Gamma)
1 k-point in the irreducible part of the Brillouin zone
       k-points in crystal coordinates                weights
   0:     0.00000000    0.00000000    0.00000000          1/1

Wave functions: Uniform real-space grid
  Kinetic energy operator: 6*3+1=19 point O(h^6) finite-difference Laplacian
  ScaLapack parameters: grid=1x1, blocksize=None 

Eigensolver
   Davidson(niter=1, smin=None, normalize=True) 

Densities:
  Coarse grid: 72*64*72 grid
  Fine grid: 144*128*144 grid
  Total Charge: 0.000000 

Density mixing:
  Method: separate
  Backend: pulay
  Linear mixing parameter: 0.25
  Mixing with 3 old densities
  No damping of long wave oscillations 

Hamiltonian:
  XC and Coulomb potentials evaluated on a 144*128*144 grid
  Using the PBE Exchange-Correlation functional
  Interpolation: tri-quintic (5. degree polynomial)
  Poisson solver: Jacobi solver with 5 multi-grid levels
    Coarsest grid: 9 x 8 x 9 points
    Stencil: 6*3+1=19 point O(h^6) finite-difference Laplacian
    Max iterations: 1000
    Tolerance: 2.000000e-10 

Memory estimate:
  Process memory now: 642.37 MiB
  Calculator: 325.36 MiB
    Density: 113.90 MiB
      Arrays: 64.29 MiB
      Localized functions: 35.07 MiB
      Mixer: 14.54 MiB
    Hamiltonian: 92.51 MiB
      Arrays: 42.05 MiB
      XC: 0.00 MiB
      Poisson: 48.10 MiB
      vbar: 2.35 MiB
    Wavefunctions: 118.96 MiB
      Arrays psit_nG: 50.88 MiB
      Eigensolver: 63.03 MiB
      Projections: 0.01 MiB
      Projectors: 5.04 MiB

Total number of cores used: 1

Number of atoms: 3
Number of atomic orbitals: 21
Number of bands in calculation: 21
Bands to converge: occupied states only
Number of valence electrons: 21

... initialized

Initializing position-dependent things.

Density initialized from atomic densities
Creating initial wave functions:
  21 bands from LCAO basis set

      .--------------------.  
     /|                    |  
    / |                    |  
   /  |                    |  
  /   |                    |  
 *    |                    |  
 |    |                    |  
 |    |     Hf   C         |  
 |    |    N               |  
 |    |                    |  
 |    .--------------------.  
 |   /                    /   
 |  /                    /    
 | /                    /     
 |/                    /      
 *--------------------*       

Positions:
   0 Hf     3.350050    4.891250    4.385000    ( 0.0000,  0.0000,  0.0000)
   1 N      3.350050    3.108750    4.115000    ( 0.0000,  0.0000,  0.0000)
   2 C      5.149950    4.891250    4.115000    ( 0.0000,  0.0000,  0.0000)

Unit cell:
           periodic     x           y           z      points  spacing
  1. axis:    no     8.500000    0.000000    0.000000    72     0.1181
  2. axis:    no     0.000000    8.000000    0.000000    64     0.1250
  3. axis:    no     0.000000    0.000000    8.500000    72     0.1181

  Lengths:   8.500000   8.000000   8.500000
  Angles:   90.000000  90.000000  90.000000

Effective grid spacing dv^(1/3) = 0.1203

                     log10-error:    total        iterations:
           time      wfs    density  energy       fermi  poisson
iter:   1  21:20:59  +2.41   +inf   -18.734984    0      15     
iter:   2  21:21:01  +1.15   +inf   -19.296928    0             
iter:   3  21:21:03  +0.59   +inf   -19.477384    0             
iter:   4  21:21:12  +0.61  -0.70   -16.528430    0      11     
iter:   5  21:21:21  +0.85  -0.77   -15.355461    0      9      
iter:   6  21:21:29  +0.52  -0.97   -14.591270    0      9      
iter:   7  21:21:38  +0.19  -1.19   -14.441890    0      9      
iter:   8  21:21:46  +0.48  -1.49   -14.460539    0      8      
iter:   9  21:21:53  -0.22  -1.69   -14.466678    0      7      
iter:  10  21:22:00  +0.09  -1.96   -14.470634    0      5      
iter:  11  21:22:07  -0.76  -2.17   -14.473383    0      5      
iter:  12  21:22:14  -0.55  -2.21   -14.475050    0      5      
iter:  13  21:22:20  -1.26  -2.33   -14.476575    0      4      
iter:  14  21:22:27  -0.95  -2.31   -14.476286    0      5      
iter:  15  21:22:33  -1.77  -2.55   -14.476442    0      5      
iter:  16  21:22:40  -1.59  -2.73   -14.476587    0      4      
iter:  17  21:22:46  -2.13  -2.81   -14.476815    0      4      
iter:  18  21:22:52  -2.01  -2.96   -14.476842    0      3      
iter:  19  21:22:58  -2.44  -3.05   -14.476939    0      4      
iter:  20  21:23:04  -2.38  -3.26   -14.477009    0      3      
iter:  21  21:23:10  -2.78  -3.45   -14.476989    0      3      
iter:  22  21:23:16  -2.71  -3.52   -14.477007    0      3      
iter:  23  21:23:21  -3.09  -3.80   -14.476990    0      2      
iter:  24  21:23:27  -3.03  -3.85   -14.477052    0      2      
iter:  25  21:23:32  -3.39  -4.06   -14.477077    0      2      
iter:  26  21:23:37  -3.33  -4.12   -14.477094    0      1      
iter:  27  21:23:42  -3.68  -4.29   -14.477183    0      1      
iter:  28  21:23:48  -3.64  -4.24   -14.477166    0      1      
iter:  29  21:23:53  -3.98  -4.28   -14.477162    0      2      
iter:  30  21:23:58  -3.95  -4.54   -14.476940    0      1      
iter:  31  21:24:03  -4.25  -4.54   -14.477157    0      1      
iter:  32  21:24:08  -4.25  -4.79   -14.477071    0      1      
iter:  33  21:24:13  -4.54  -5.17   -14.477049    0      1      
iter:  34  21:24:18  -4.54  -5.15   -14.477029    0      1      
iter:  35  21:24:23  -4.83  -5.12   -14.476986    0      1      
iter:  36  21:24:28  -4.83  -4.82   -14.477058    0      1      
iter:  37  21:24:33  -5.10  -5.07   -14.477033    0      1      
iter:  38  21:24:38  -5.11  -5.03   -14.477053    0      1      
iter:  39  21:24:43  -5.38  -5.03   -14.476994    0      1      
iter:  40  21:24:48  -5.39  -4.87   -14.476981    0      1      
iter:  41  21:24:53  -5.64  -4.96   -14.477081    0      1      
iter:  42  21:24:58  -5.69  -4.97   -14.477050    0      1      
iter:  43  21:25:03  -5.93  -5.11   -14.477123    0      1      
iter:  44  21:25:09  -5.98  -5.34   -14.477042    0      1      
iter:  45  21:25:14  -6.23  -5.50   -14.477014    0      1      
iter:  46  21:25:19  -6.26  -5.59   -14.477002    0      1      
iter:  47  21:25:24  -6.50  -6.13   -14.476999    0      1      
iter:  48  21:25:29  -6.54  -6.03   -14.476999    0      1      
iter:  49  21:25:34  -6.77  -6.15   -14.477000    0      1      
iter:  50  21:25:39  -6.80  -6.04   -14.476998    0      1      
iter:  51  21:25:44  -7.04  -5.97   -14.476999    0      1      
iter:  52  21:25:49  -7.07  -5.87   -14.476997    0      1      
iter:  53  21:25:54  -7.30  -5.93   -14.476999    0      1      
iter:  54  21:25:59  -7.33  -5.90   -14.476999    0      1      
iter:  55  21:26:04  -7.58  -5.83   -14.476994    0      1      

Converged after 55 iterations.

Dipole moment: (-0.925289, 1.208103, 0.309159) |e|*Ang

Energy contributions relative to reference atoms: (reference = -412395.464894)

Kinetic:        +22.602333
Potential:      -18.518853
External:        +0.000000
XC:             -18.409744
Entropy (-ST):   +0.000000
Local:           -0.150730
--------------------------
Free energy:    -14.476994
Extrapolated:   -14.476994

Fermi level: -4.94724

 Band  Eigenvalues  Occupancy
    0    -65.03026    2.00000
    1    -34.38392    2.00000
    2    -34.27574    2.00000
    3    -34.17874    2.00000
    4    -15.78116    2.00000
    5    -12.34532    2.00000
    6     -6.56691    2.00000
    7     -5.58082    2.00000
    8     -5.39870    2.00000
    9     -5.01668    2.00000
   10     -4.94724    1.00000
   11     -3.44617    0.00000
   12     -3.01724    0.00000
   13     -1.27825    0.00000
   14     -0.63371    0.00000
   15      0.55350    0.00000
   16      0.86380    0.00000
   17      1.56310    0.00000
   18      2.22109    0.00000
   19      2.56075    0.00000
   20      3.17146    0.00000

Writing to 3_57799_P1_PBE_zy0_2700.gpw (mode='all')

Timing:                              incl.     excl.
-----------------------------------------------------------
Hamiltonian:                         8.856     0.000   0.0% |
 Atomic:                             0.195     0.001   0.0% |
  XC Correction:                     0.194     0.194   0.1% |
 Calculate atomic Hamiltonians:      0.009     0.009   0.0% |
 Communicate:                        0.000     0.000   0.0% |
 Hartree integrate/restrict:         0.034     0.034   0.0% |
 Initialize Hamiltonian:             0.000     0.000   0.0% |
 Poisson:                            6.431     6.431   2.0% ||
 XC 3D grid:                         2.176     2.176   0.7% |
 vbar:                               0.011     0.011   0.0% |
LCAO initialization:                 0.737     0.488   0.2% |
 LCAO eigensolver:                   0.075     0.000   0.0% |
  Calculate projections:             0.000     0.000   0.0% |
  DenseAtomicCorrection:             0.000     0.000   0.0% |
  Distribute overlap matrix:         0.000     0.000   0.0% |
  Orbital Layouts:                   0.000     0.000   0.0% |
  Potential matrix:                  0.075     0.075   0.0% |
 LCAO to grid:                       0.170     0.170   0.1% |
 Set positions (LCAO WFS):           0.004     0.000   0.0% |
  Basic WFS set positions:           0.000     0.000   0.0% |
  Basis functions set positions:     0.000     0.000   0.0% |
  TCI: Calculate S, T, P:            0.003     0.003   0.0% |
SCF-cycle:                         307.570     0.021   0.0% |
 Davidson:                         114.988    21.014   6.6% |--|
  Apply hamiltonian:                 8.880     8.880   2.8% ||
  Subspace diag:                    32.778     0.005   0.0% |
   calc_h_matrix:                   16.296     7.418   2.3% ||
    Apply hamiltonian:               8.879     8.879   2.8% ||
   diagonalize:                      0.012     0.012   0.0% |
   rotate_psi:                      16.463    16.463   5.2% |-|
  calc. matrices:                   35.876    27.017   8.5% |--|
   Apply hamiltonian:                8.859     8.859   2.8% ||
  diagonalize:                       0.044     0.044   0.0% |
  rotate_psi:                       16.396    16.396   5.2% |-|
 Density:                            4.186     0.001   0.0% |
  Atomic density matrices:           0.035     0.035   0.0% |
  Mix:                               3.004     3.004   0.9% |
  Multipole moments:                 0.009     0.009   0.0% |
  Pseudo density:                    1.136     1.136   0.4% |
   Symmetrize density:               0.001     0.001   0.0% |
 Hamiltonian:                      188.175     0.006   0.0% |
  Atomic:                           10.171     0.045   0.0% |
   XC Correction:                   10.126    10.126   3.2% ||
  Calculate atomic Hamiltonians:     0.453     0.453   0.1% |
  Communicate:                       0.000     0.000   0.0% |
  Hartree integrate/restrict:        1.772     1.772   0.6% |
  Poisson:                          61.584    61.584  19.3% |-------|
  XC 3D grid:                      113.868   113.868  35.8% |-------------|
  vbar:                              0.322     0.322   0.1% |
 Orthonormalize:                     0.200     0.000   0.0% |
  calc_s_matrix:                     0.073     0.073   0.0% |
  inverse-cholesky:                  0.000     0.000   0.0% |
  projections:                       0.028     0.028   0.0% |
  rotate_psi_s:                      0.098     0.098   0.0% |
Set symmetry:                        0.001     0.001   0.0% |
Other:                               1.124     1.124   0.4% |
-----------------------------------------------------------
Total:                                       318.288 100.0%

Memory usage: 642.37 MiB
Date: Mon Aug 20 21:26:04 2018
