
  ___ ___ ___ _ _ _  
 |   |   |_  | | | | 
 | | | | | . | | | | 
 |__ |  _|___|_____|  1.4.0
 |___|_|             

User:   ???@3fe09ff0504a
Date:   Sat Aug 25 23:15:22 2018
Arch:   x86_64
Pid:    2590
Python: 3.7.0
gpaw:   /app/gpaw/software/venv/lib/python3.7/site-packages/gpaw
_gpaw:  /app/gpaw/software/venv/lib/python3.7/site-packages/
        _gpaw.cpython-37m-x86_64-linux-gnu.so
ase:    /app/gpaw/software/venv/lib/python3.7/site-packages/ase (version 3.16.2)
numpy:  /app/gpaw/software/venv/lib/python3.7/site-packages/numpy (version 1.15.0)
scipy:  /app/gpaw/software/venv/lib/python3.7/site-packages/scipy (version 1.1.0)
units:  Angstrom and eV
cores:  1

Input parameters:
  gpts: [72 64 72]
  maxiter: 150
  mixer: {backend: pulay,
          beta: None,
          method: separate,
          nmaxold: None,
          weight: None}
  xc: B3LYP

System changes: positions, numbers, cell, pbc, initial_charges, initial_magmoms 

Initialize ...

Hf-setup:
  name: Hafnium
  id: d03a45b6fa1dd7f07e443d1513edf499
  Z: 72
  valence: 12
  core: 60
  charge: 0.0
  file: /app/gpaw/datasets/Hf.PBE
  cutoffs: 1.30(comp), 2.36(filt), 4.02(core), lmax=2
  valence states:
                energy  radius
    5s(2.00)   -66.831   1.397
    6s(2.00)    -5.097   1.397
    5p(6.00)   -35.599   1.307
    6p(0.00)    -1.401   1.307
    5d(2.00)    -2.699   1.334
    *d          24.513   1.334

  Using partial waves for Hf as LCAO basis

N-setup:
  name: Nitrogen
  id: 45c8c9c739e7b131496b9fd2deb94bff
  Z: 7
  valence: 5
  core: 2
  charge: 0.0
  file: /app/gpaw/datasets/N.PBE
  cutoffs: 0.58(comp), 1.11(filt), 0.96(core), lmax=2
  valence states:
                energy  radius
    2s(2.00)   -18.583   0.603
    2p(3.00)    -7.089   0.529
    *s           8.629   0.603
    *p          20.123   0.529
    *d           0.000   0.577

  Using partial waves for N as LCAO basis

C-setup:
  name: Carbon
  id: 2f012631b351e3618121587a96c50fca
  Z: 6
  valence: 4
  core: 2
  charge: 0.0
  file: /app/gpaw/datasets/C.PBE
  cutoffs: 0.64(comp), 1.14(filt), 1.14(core), lmax=2
  valence states:
                energy  radius
    2s(2.00)   -13.751   0.635
    2p(2.00)    -5.285   0.635
    *s          13.461   0.635
    *p          21.927   0.635
    *d           0.000   0.635

  Using partial waves for C as LCAO basis

Reference energy: -412395.464894

Spin-paired calculation

Occupation numbers:
  Fermi-Dirac: width=0.0000 eV

Convergence criteria:
  Maximum total energy change: 0.0005 eV / electron
  Maximum integral of absolute density change: 0.0001 electrons
  Maximum integral of absolute eigenstate change: 4e-08 eV^2
  Maximum number of iterations: 150

Symmetries present (total): 1

  ( 1  0  0)
  ( 0  1  0)
  ( 0  0  1)

1 k-point (Gamma)
1 k-point in the irreducible part of the Brillouin zone
       k-points in crystal coordinates                weights
   0:     0.00000000    0.00000000    0.00000000          1/1

Wave functions: Uniform real-space grid
  Kinetic energy operator: 6*3+1=19 point O(h^6) finite-difference Laplacian
  ScaLapack parameters: grid=1x1, blocksize=None 

Eigensolver
   Davidson(niter=1, smin=None, normalize=True) 

Densities:
  Coarse grid: 72*64*72 grid
  Fine grid: 144*128*144 grid
  Total Charge: 0.000000 

Density mixing:
  Method: separate
  Backend: pulay
  Linear mixing parameter: 0.25
  Mixing with 3 old densities
  No damping of long wave oscillations 

Hamiltonian:
  XC and Coulomb potentials evaluated on a 144*128*144 grid
  Using the B3LYP Exchange-Correlation functional
  Interpolation: tri-quintic (5. degree polynomial)
  Poisson solver: Jacobi solver with 5 multi-grid levels
    Coarsest grid: 9 x 8 x 9 points
    Stencil: 6*3+1=19 point O(h^6) finite-difference Laplacian
    Max iterations: 1000
    Tolerance: 2.000000e-10 

Memory estimate:
  Process memory now: 41.52 MiB
  Calculator: 325.36 MiB
    Density: 113.90 MiB
      Arrays: 64.29 MiB
      Localized functions: 35.07 MiB
      Mixer: 14.54 MiB
    Hamiltonian: 92.51 MiB
      Arrays: 42.05 MiB
      XC: 0.00 MiB
      Poisson: 48.10 MiB
      vbar: 2.35 MiB
    Wavefunctions: 118.96 MiB
      Arrays psit_nG: 50.88 MiB
      Eigensolver: 63.03 MiB
      Projections: 0.01 MiB
      Projectors: 5.04 MiB

Total number of cores used: 1

Number of atoms: 3
Number of atomic orbitals: 21
Number of bands in calculation: 21
Bands to converge: occupied states only
Number of valence electrons: 21

... initialized

Initializing position-dependent things.

Density initialized from atomic densities
Creating initial wave functions:
  21 bands from LCAO basis set

      .--------------------.  
     /|                    |  
    / |                    |  
   /  |                    |  
  /   |                    |  
 *    |                    |  
 |    |                    |  
 |    |     Hf   C         |  
 |    |    N               |  
 |    |                    |  
 |    .--------------------.  
 |   /                    /   
 |  /                    /    
 | /                    /     
 |/                    /      
 *--------------------*       

Positions:
   0 Hf     3.350050    4.891250    4.450000    ( 0.0000,  0.0000,  0.0000)
   1 N      3.350050    3.108750    4.050000    ( 0.0000,  0.0000,  0.0000)
   2 C      5.149950    4.891250    4.050000    ( 0.0000,  0.0000,  0.0000)

Unit cell:
           periodic     x           y           z      points  spacing
  1. axis:    no     8.500000    0.000000    0.000000    72     0.1181
  2. axis:    no     0.000000    8.000000    0.000000    64     0.1250
  3. axis:    no     0.000000    0.000000    8.500000    72     0.1181

  Lengths:   8.500000   8.000000   8.500000
  Angles:   90.000000  90.000000  90.000000

Effective grid spacing dv^(1/3) = 0.1203

                     log10-error:    total        iterations:
           time      wfs    density  energy       fermi  poisson
iter:   1  23:15:38  +2.45   +inf  1677.432320    0      15     
iter:   2  23:17:31  +1.05   +inf  1574.553791    0             
iter:   3  23:19:21  +2.35   +inf  1600.076262    0             
iter:   4  23:21:13  +3.09  -0.72  1567.759816    0      10     
iter:   5  23:23:04  +2.97  -0.75   678.242189    0      9      
iter:   6  23:24:55  +2.97  -0.85   253.164545    0      8      
iter:   7  23:26:50  +3.32  -0.28  -41652.182443    0      8      
iter:   8  23:28:45  +5.70  -0.15  -50664.627707    0      8      
iter:   9  23:31:33  +8.03  -0.06  -1985361.795838    0      14     
Timing:                              incl.     excl.
-----------------------------------------------------------
Hamiltonian:                        10.380     0.000   0.0% |
 Atomic:                             0.243     0.001   0.0% |
  XC Correction:                     0.242     0.242   0.0% |
 Calculate atomic Hamiltonians:      0.009     0.009   0.0% |
 Communicate:                        0.000     0.000   0.0% |
 Hartree integrate/restrict:         0.043     0.043   0.0% |
 Initialize Hamiltonian:             0.000     0.000   0.0% |
 Poisson:                            6.992     6.992   0.7% |
 XC 3D grid:                         3.078     3.078   0.3% |
 vbar:                               0.014     0.014   0.0% |
LCAO initialization:                 0.863     0.604   0.1% |
 LCAO eigensolver:                   0.079     0.000   0.0% |
  Calculate projections:             0.000     0.000   0.0% |
  DenseAtomicCorrection:             0.000     0.000   0.0% |
  Distribute overlap matrix:         0.000     0.000   0.0% |
  Orbital Layouts:                   0.000     0.000   0.0% |
  Potential matrix:                  0.078     0.078   0.0% |
 LCAO to grid:                       0.176     0.176   0.0% |
 Set positions (LCAO WFS):           0.005     0.000   0.0% |
  Basic WFS set positions:           0.000     0.000   0.0% |
  Basis functions set positions:     0.000     0.000   0.0% |
  TCI: Calculate S, T, P:            0.004     0.004   0.0% |
SCF-cycle:                        1062.102     0.005   0.0% |
 Davidson:                        1006.939     4.000   0.4% |
  Apply hamiltonian:               351.437   351.437  32.7% |------------|
  Subspace diag:                   341.506     0.001   0.0% |
   calc_h_matrix:                  339.167     1.629   0.2% |
    Apply hamiltonian:             337.538   337.538  31.4% |------------|
   diagonalize:                      0.002     0.002   0.0% |
   rotate_psi:                       2.337     2.337   0.2% |
  calc. matrices:                  306.998     5.089   0.5% |
   Apply hamiltonian:              301.909   301.909  28.1% |----------|
  diagonalize:                       0.007     0.007   0.0% |
  rotate_psi:                        2.990     2.990   0.3% |
 Density:                            0.562     0.000   0.0% |
  Atomic density matrices:           0.005     0.005   0.0% |
  Mix:                               0.403     0.403   0.0% |
  Multipole moments:                 0.001     0.001   0.0% |
  Pseudo density:                    0.153     0.152   0.0% |
   Symmetrize density:               0.000     0.000   0.0% |
 Hamiltonian:                       54.341     0.001   0.0% |
  Atomic:                            1.651     0.006   0.0% |
   XC Correction:                    1.645     1.645   0.2% |
  Calculate atomic Hamiltonians:     0.061     0.061   0.0% |
  Communicate:                       0.000     0.000   0.0% |
  Hartree integrate/restrict:        0.245     0.245   0.0% |
  Poisson:                          31.374    31.374   2.9% ||
  XC 3D grid:                       20.959    20.959   2.0% ||
  vbar:                              0.050     0.050   0.0% |
 Orthonormalize:                     0.254     0.000   0.0% |
  calc_s_matrix:                     0.102     0.102   0.0% |
  inverse-cholesky:                  0.000     0.000   0.0% |
  projections:                       0.030     0.030   0.0% |
  rotate_psi_s:                      0.121     0.121   0.0% |
Set symmetry:                        0.001     0.001   0.0% |
Other:                               1.294     1.294   0.1% |
-----------------------------------------------------------
Total:                                      1074.640 100.0%

Memory usage: 646.77 MiB
Date: Sat Aug 25 23:33:17 2018
