
  ___ ___ ___ _ _ _  
 |   |   |_  | | | | 
 | | | | | . | | | | 
 |__ |  _|___|_____|  1.4.0
 |___|_|             

User:   ???@3fe09ff0504a
Date:   Mon Aug 20 18:30:37 2018
Arch:   x86_64
Pid:    1639
Python: 3.7.0
gpaw:   /app/gpaw/software/venv/lib/python3.7/site-packages/gpaw
_gpaw:  /app/gpaw/software/venv/lib/python3.7/site-packages/
        _gpaw.cpython-37m-x86_64-linux-gnu.so
ase:    /app/gpaw/software/venv/lib/python3.7/site-packages/ase (version 3.16.2)
numpy:  /app/gpaw/software/venv/lib/python3.7/site-packages/numpy (version 1.15.0)
scipy:  /app/gpaw/software/venv/lib/python3.7/site-packages/scipy (version 1.1.0)
units:  Angstrom and eV
cores:  1

Input parameters:
  gpts: [72 64 72]
  maxiter: 150
  mixer: {backend: pulay,
          beta: None,
          method: separate,
          nmaxold: None,
          weight: None}
  xc: AM05

System changes: positions, numbers, cell, pbc, initial_charges, initial_magmoms 

Initialize ...

Hf-setup:
  name: Hafnium
  id: be1dbd46b0dbeba81c91d934642692d8
  Z: 72
  valence: 12
  core: 60
  charge: 0.0
  file: /app/gpaw/datasets/Hf.AM05
  cutoffs: 1.30(comp), 2.36(filt), 4.02(core), lmax=2
  valence states:
                energy  radius
    5s(2.00)   -66.868   1.397
    6s(2.00)    -5.050   1.397
    5p(6.00)   -35.616   1.307
    6p(0.00)    -1.329   1.307
    5d(2.00)    -2.680   1.334
    *d          24.531   1.334

  Using partial waves for Hf as LCAO basis

N-setup:
  name: Nitrogen
  id: 88d9dd47e7323d02b4d7c482efef5f01
  Z: 7
  valence: 5
  core: 2
  charge: 0.0
  file: /app/gpaw/datasets/N.AM05
  cutoffs: 0.58(comp), 1.11(filt), 0.96(core), lmax=2
  valence states:
                energy  radius
    2s(2.00)   -18.394   0.603
    2p(3.00)    -7.016   0.529
    *s           8.817   0.603
    *p          20.196   0.529
    *d           0.000   0.577

  Using partial waves for N as LCAO basis

C-setup:
  name: Carbon
  id: 4a6a211abac4d3f657566037c586fc49
  Z: 6
  valence: 4
  core: 2
  charge: 0.0
  file: /app/gpaw/datasets/C.AM05
  cutoffs: 0.64(comp), 1.14(filt), 1.14(core), lmax=2
  valence states:
                energy  radius
    2s(2.00)   -13.603   0.635
    2p(2.00)    -5.213   0.635
    *s          13.608   0.635
    *p          21.998   0.635
    *d           0.000   0.635

  Using partial waves for C as LCAO basis

Reference energy: -412143.985896

Spin-paired calculation

Occupation numbers:
  Fermi-Dirac: width=0.0000 eV

Convergence criteria:
  Maximum total energy change: 0.0005 eV / electron
  Maximum integral of absolute density change: 0.0001 electrons
  Maximum integral of absolute eigenstate change: 4e-08 eV^2
  Maximum number of iterations: 150

Symmetries present (total): 1

  ( 1  0  0)
  ( 0  1  0)
  ( 0  0  1)

1 k-point (Gamma)
1 k-point in the irreducible part of the Brillouin zone
       k-points in crystal coordinates                weights
   0:     0.00000000    0.00000000    0.00000000          1/1

Wave functions: Uniform real-space grid
  Kinetic energy operator: 6*3+1=19 point O(h^6) finite-difference Laplacian
  ScaLapack parameters: grid=1x1, blocksize=None 

Eigensolver
   Davidson(niter=1, smin=None, normalize=True) 

Densities:
  Coarse grid: 72*64*72 grid
  Fine grid: 144*128*144 grid
  Total Charge: 0.000000 

Density mixing:
  Method: separate
  Backend: pulay
  Linear mixing parameter: 0.25
  Mixing with 3 old densities
  No damping of long wave oscillations 

Hamiltonian:
  XC and Coulomb potentials evaluated on a 144*128*144 grid
  Using the AM05 Exchange-Correlation functional
  Interpolation: tri-quintic (5. degree polynomial)
  Poisson solver: Jacobi solver with 5 multi-grid levels
    Coarsest grid: 9 x 8 x 9 points
    Stencil: 6*3+1=19 point O(h^6) finite-difference Laplacian
    Max iterations: 1000
    Tolerance: 2.000000e-10 

Memory estimate:
  Process memory now: 41.53 MiB
  Calculator: 325.36 MiB
    Density: 113.90 MiB
      Arrays: 64.29 MiB
      Localized functions: 35.07 MiB
      Mixer: 14.54 MiB
    Hamiltonian: 92.51 MiB
      Arrays: 42.05 MiB
      XC: 0.00 MiB
      Poisson: 48.10 MiB
      vbar: 2.35 MiB
    Wavefunctions: 118.96 MiB
      Arrays psit_nG: 50.88 MiB
      Eigensolver: 63.03 MiB
      Projections: 0.01 MiB
      Projectors: 5.04 MiB

Total number of cores used: 1

Number of atoms: 3
Number of atomic orbitals: 21
Number of bands in calculation: 21
Bands to converge: occupied states only
Number of valence electrons: 21

... initialized

Initializing position-dependent things.

Density initialized from atomic densities
Creating initial wave functions:
  21 bands from LCAO basis set

      .--------------------.  
     /|                    |  
    / |                    |  
   /  |                    |  
  /   |                    |  
 *    |                    |  
 |    |                    |  
 |    |     Hf   C         |  
 |    |    N               |  
 |    |                    |  
 |    .--------------------.  
 |   /                    /   
 |  /                    /    
 | /                    /     
 |/                    /      
 *--------------------*       

Positions:
   0 Hf     3.335050    4.906250    4.250000    ( 0.0000,  0.0000,  0.0000)
   1 N      3.335050    3.093750    4.250000    ( 0.0000,  0.0000,  0.0000)
   2 C      5.164950    4.906250    4.250000    ( 0.0000,  0.0000,  0.0000)

Unit cell:
           periodic     x           y           z      points  spacing
  1. axis:    no     8.500000    0.000000    0.000000    72     0.1181
  2. axis:    no     0.000000    8.000000    0.000000    64     0.1250
  3. axis:    no     0.000000    0.000000    8.500000    72     0.1181

  Lengths:   8.500000   8.000000   8.500000
  Angles:   90.000000  90.000000  90.000000

Effective grid spacing dv^(1/3) = 0.1203

                     log10-error:    total        iterations:
           time      wfs    density  energy       fermi  poisson
iter:   1  18:30:53  +2.42   +inf   -19.105681    0      15     
iter:   2  18:30:56  +1.13   +inf   -19.646675    0             
iter:   3  18:31:00  +0.57   +inf   -19.820728    0             
iter:   4  18:31:12  +0.58  -0.70   -17.068630    0      11     
iter:   5  18:31:23  +0.85  -0.76   -15.817078    0      9      
iter:   6  18:31:34  +0.52  -0.97   -15.053495    0      9      
iter:   7  18:31:45  +0.22  -1.19   -14.905534    0      9      
iter:   8  18:31:55  +0.48  -1.49   -14.931850    0      8      
iter:   9  18:32:05  -0.18  -1.67   -14.939302    0      7      
iter:  10  18:32:14  +0.11  -1.96   -14.945030    0      5      
iter:  11  18:32:23  -0.74  -2.21   -14.948487    0      5      
iter:  12  18:32:32  -0.58  -2.37   -14.950328    0      4      
iter:  13  18:32:40  -1.20  -2.58   -14.951492    0      4      
iter:  14  18:32:48  -1.07  -2.64   -14.952243    0      5      
iter:  15  18:32:55  -1.67  -3.08   -14.952258    0      4      
iter:  16  18:33:03  -1.42  -3.12   -14.952835    0      4      
iter:  17  18:33:10  -2.08  -3.32   -14.953096    0      3      
iter:  18  18:33:17  -1.78  -3.29   -14.953334    0      3      
iter:  19  18:33:24  -2.44  -3.73   -14.953480    0      2      
iter:  20  18:33:31  -2.14  -3.68   -14.953375    0      2      
iter:  21  18:33:37  -2.77  -3.65   -14.953344    0      2      
iter:  22  18:33:44  -2.47  -3.46   -14.953422    0      2      
iter:  23  18:33:53  -3.08  -3.44   -14.953421    0      3      
iter:  24  18:34:00  -2.79  -3.46   -14.953456    0      3      
iter:  25  18:34:07  -3.36  -3.37   -14.953602    0      2      
iter:  26  18:34:15  -3.21  -3.43   -14.953562    0      3      
iter:  27  18:34:23  -3.72  -3.56   -14.953658    0      3      
iter:  28  18:34:30  -3.59  -3.91   -14.953494    0      2      
iter:  29  18:34:36  -4.03  -4.22   -14.953444    0      2      
iter:  30  18:34:43  -3.92  -4.63   -14.953483    0      1      
iter:  31  18:34:50  -4.34  -4.67   -14.953456    0      1      
iter:  32  18:34:56  -4.25  -4.68   -14.953447    0      1      
iter:  33  18:35:03  -4.64  -4.75   -14.953463    0      1      
iter:  34  18:35:10  -4.52  -5.09   -14.953453    0      1      
iter:  35  18:35:16  -4.93  -5.17   -14.953445    0      1      
iter:  36  18:35:23  -4.82  -5.15   -14.953413    0      1      
iter:  37  18:35:29  -5.23  -4.89   -14.953440    0      1      
iter:  38  18:35:36  -5.09  -5.08   -14.953429    0      1      
iter:  39  18:35:43  -5.52  -5.03   -14.953426    0      1      
iter:  40  18:35:49  -5.38  -5.00   -14.953404    0      1      
iter:  41  18:35:56  -5.81  -4.91   -14.953480    0      1      
iter:  42  18:36:02  -5.69  -4.96   -14.953451    0      1      
iter:  43  18:36:09  -6.13  -5.14   -14.953453    0      1      
iter:  44  18:36:15  -5.98  -5.22   -14.953469    0      1      
iter:  45  18:36:22  -6.41  -5.65   -14.953428    0      1      
iter:  46  18:36:29  -6.30  -5.88   -14.953422    0      1      
iter:  47  18:36:35  -6.69  -6.12   -14.953420    0      1      
iter:  48  18:36:42  -6.58  -6.06   -14.953418    0      1      
iter:  49  18:36:48  -6.97  -6.52   -14.953419    0      1      
iter:  50  18:36:54  -6.86  -6.48   -14.953419    0      1      
iter:  51  18:37:01  -7.25  -6.38   -14.953418    0      1      
iter:  52  18:37:07  -7.14  -6.20   -14.953418    0      1      
iter:  53  18:37:13  -7.52  -6.18   -14.953418    0      1      

Converged after 53 iterations.

Dipole moment: (-0.941653, 1.235135, -0.000000) |e|*Ang

Energy contributions relative to reference atoms: (reference = -412143.985896)

Kinetic:        +19.997446
Potential:      -16.239817
External:        +0.000000
XC:             -18.521567
Entropy (-ST):   +0.000000
Local:           -0.189481
--------------------------
Free energy:    -14.953418
Extrapolated:   -14.953418

Fermi level: -4.92853

 Band  Eigenvalues  Occupancy
    0    -65.07738    2.00000
    1    -34.39217    2.00000
    2    -34.30491    2.00000
    3    -34.19668    2.00000
    4    -15.64218    2.00000
    5    -12.25682    2.00000
    6     -6.52142    2.00000
    7     -5.50863    2.00000
    8     -5.35962    2.00000
    9     -4.97943    2.00000
   10     -4.92853    1.00000
   11     -3.50133    0.00000
   12     -2.85859    0.00000
   13     -1.15684    0.00000
   14     -0.58146    0.00000
   15      0.56877    0.00000
   16      0.93835    0.00000
   17      1.66147    0.00000
   18      2.31335    0.00000
   19      2.66634    0.00000
   20      3.31159    0.00000


Forces in eV/Ang:
  0 Hf   -2.95384    0.12086   -0.00000
  1 N     0.71217    0.55540   -0.00000
  2 C     2.25331   -0.74093    0.00000

System changes: positions 

Initializing position-dependent things.

Density initialized from wave functions
      .--------------------.  
     /|                    |  
    / |                    |  
   /  |                    |  
  /   |                    |  
 *    |                    |  
 |    |                    |  
 |    |     Hf   C         |  
 |    |    N               |  
 |    |                    |  
 |    .--------------------.  
 |   /                    /   
 |  /                    /    
 | /                    /     
 |/                    /      
 *--------------------*       

Positions:
   0 Hf     3.135217    4.914426    4.250000    ( 0.0000,  0.0000,  0.0000)
   1 N      3.383230    3.131324    4.250000    ( 0.0000,  0.0000,  0.0000)
   2 C      5.317391    4.856125    4.250000    ( 0.0000,  0.0000,  0.0000)

Unit cell:
           periodic     x           y           z      points  spacing
  1. axis:    no     8.500000    0.000000    0.000000    72     0.1181
  2. axis:    no     0.000000    8.000000    0.000000    64     0.1250
  3. axis:    no     0.000000    0.000000    8.500000    72     0.1181

  Lengths:   8.500000   8.000000   8.500000
  Angles:   90.000000  90.000000  90.000000

Effective grid spacing dv^(1/3) = 0.1203

                     log10-error:    total        iterations:
           time      wfs    density  energy       fermi  poisson
iter:   1  18:37:26  +1.96   +inf   -25.417481    0      14     
iter:   2  18:37:38  +2.01  -0.50   -22.264985    0      11     
iter:   3  18:37:49  +1.08  -0.58   -17.348952    0      10     
iter:   4  18:37:59  +0.78  -0.88   -15.645806    0      9      
iter:   5  18:38:08  +0.38  -1.11   -15.249142    0      8      
iter:   6  18:38:18  +0.17  -1.33   -15.180709    0      7      
iter:   7  18:38:27  +0.07  -1.62   -15.191309    0      7      
iter:   8  18:38:36  -0.07  -1.82   -15.196196    0      6      
iter:   9  18:38:45  -0.43  -1.98   -15.198336    0      6      
iter:  10  18:38:53  -0.61  -2.20   -15.198170    0      5      
iter:  11  18:39:02  -1.03  -2.42   -15.198142    0      5      
iter:  12  18:39:09  -1.25  -2.66   -15.198574    0      4      
iter:  13  18:39:17  -1.53  -2.86   -15.198962    0      4      
iter:  14  18:39:26  -1.67  -2.96   -15.199165    0      4      
iter:  15  18:39:33  -1.95  -3.19   -15.199330    0      4      
iter:  16  18:39:41  -2.05  -3.49   -15.199403    0      3      
iter:  17  18:39:48  -2.30  -3.63   -15.199470    0      3      
iter:  18  18:39:55  -2.37  -3.75   -15.199606    0      2      
iter:  19  18:40:02  -2.62  -3.87   -15.199623    0      2      
iter:  20  18:40:09  -2.69  -3.84   -15.199527    0      1      
iter:  21  18:40:15  -2.93  -3.82   -15.199841    0      2      
iter:  22  18:40:22  -2.98  -3.64   -15.199584    0      1      
iter:  23  18:40:29  -3.23  -3.64   -15.199600    0      3      
iter:  24  18:40:36  -3.24  -4.18   -15.199915    0      2      
iter:  25  18:40:43  -3.50  -4.06   -15.199638    0      2      
iter:  26  18:40:50  -3.56  -4.45   -15.199752    0      2      
iter:  27  18:40:57  -3.78  -4.61   -15.199781    0      1      
iter:  28  18:41:04  -3.86  -4.60   -15.199767    0      2      
iter:  29  18:41:10  -4.04  -4.86   -15.199737    0      1      
iter:  30  18:41:17  -4.11  -4.85   -15.199719    0      1      
iter:  31  18:41:23  -4.30  -5.07   -15.199731    0      1      
iter:  32  18:41:30  -4.37  -5.10   -15.199721    0      1      
iter:  33  18:41:36  -4.55  -5.20   -15.199774    0      1      
iter:  34  18:41:43  -4.61  -5.05   -15.199762    0      1      
iter:  35  18:41:49  -4.79  -5.08   -15.199755    0      1      
iter:  36  18:41:56  -4.88  -5.21   -15.199684    0      1      
iter:  37  18:42:02  -5.02  -5.26   -15.199810    0      1      
iter:  38  18:42:08  -5.14  -5.48   -15.199767    0      1      
iter:  39  18:42:15  -5.25  -5.78   -15.199779    0      1      
iter:  40  18:42:22  -5.38  -5.91   -15.199780    0      1      
iter:  41  18:42:28  -5.49  -6.00   -15.199781    0      1      
iter:  42  18:42:34  -5.61  -6.20   -15.199784    0      1      
iter:  43  18:42:40  -5.73  -6.16   -15.199790    0      1      
iter:  44  18:42:47  -5.84  -6.06   -15.199811    0      1      
iter:  45  18:42:53  -5.97  -5.60   -15.199782    0      1      
iter:  46  18:42:59  -6.06  -5.78   -15.199794    0      1      
iter:  47  18:43:06  -6.21  -5.71   -15.199795    0      1      
iter:  48  18:43:13  -6.30  -5.66   -15.199810    0      1      
iter:  49  18:43:20  -6.45  -5.46   -15.199772    0      1      
iter:  50  18:43:26  -6.48  -5.84   -15.199791    0      1      
iter:  51  18:43:33  -6.69  -5.84   -15.199775    0      1      
iter:  52  18:43:40  -6.66  -6.15   -15.199796    0      1      
iter:  53  18:43:47  -6.93  -6.31   -15.199802    0      1      
iter:  54  18:43:53  -6.91  -6.39   -15.199801    0      1      
iter:  55  18:44:00  -7.16  -6.72   -15.199800    0      1      
iter:  56  18:44:06  -7.16  -6.58   -15.199799    0      1      
iter:  57  18:44:12  -7.39  -6.68   -15.199798    0      1      
iter:  58  18:44:19  -7.40  -6.64   -15.199799    0      1      

Converged after 58 iterations.

Dipole moment: (-1.136825, 1.237101, -0.000000) |e|*Ang

Energy contributions relative to reference atoms: (reference = -412143.985896)

Kinetic:         +9.802247
Potential:      -10.086650
External:        +0.000000
XC:             -14.707865
Entropy (-ST):   +0.000000
Local:           -0.207531
--------------------------
Free energy:    -15.199799
Extrapolated:   -15.199799

Fermi level: -4.62308

 Band  Eigenvalues  Occupancy
    0    -65.91738    2.00000
    1    -35.23134    2.00000
    2    -34.84891    2.00000
    3    -34.78687    2.00000
    4    -15.63616    2.00000
    5    -12.45375    2.00000
    6     -6.21520    2.00000
    7     -5.76414    2.00000
    8     -5.33431    2.00000
    9     -4.88410    2.00000
   10     -4.62308    1.00000
   11     -3.35995    0.00000
   12     -3.20860    0.00000
   13     -1.71190    0.00000
   14     -1.12515    0.00000
   15     -0.67118    0.00000
   16      0.26902    0.00000
   17      0.47877    0.00000
   18      1.55556    0.00000
   19      2.39299    0.00000
   20      3.17563    0.00000


Forces in eV/Ang:
  0 Hf    1.25621    0.19905    0.00000
  1 N     0.94979    0.47867    0.00000
  2 C    -2.16633   -0.80453   -0.00000

System changes: positions 

Initializing position-dependent things.

Density initialized from wave functions
      .--------------------.  
     /|                    |  
    / |                    |  
   /  |                    |  
  /   |                    |  
 *    |                    |  
 |    |                    |  
 |    |     Hf   C         |  
 |    |    N               |  
 |    |                    |  
 |    .--------------------.  
 |   /                    /   
 |  /                    /    
 | /                    /     
 |/                    /      
 *--------------------*       

Positions:
   0 Hf     3.203743    4.911623    4.250000    ( 0.0000,  0.0000,  0.0000)
   1 N      3.366708    3.118439    4.250000    ( 0.0000,  0.0000,  0.0000)
   2 C      5.265116    4.873313    4.250000    ( 0.0000,  0.0000,  0.0000)

Unit cell:
           periodic     x           y           z      points  spacing
  1. axis:    no     8.500000    0.000000    0.000000    72     0.1181
  2. axis:    no     0.000000    8.000000    0.000000    64     0.1250
  3. axis:    no     0.000000    0.000000    8.500000    72     0.1181

  Lengths:   8.500000   8.000000   8.500000
  Angles:   90.000000  90.000000  90.000000

Effective grid spacing dv^(1/3) = 0.1203

                     log10-error:    total        iterations:
           time      wfs    density  energy       fermi  poisson
iter:   1  18:44:31  +1.13   +inf   -16.541074    0      12     
iter:   2  18:44:42  +1.00  -0.94   -15.583506    0      9      
iter:   3  18:44:52  +0.09  -1.16   -15.526246    0      9      
iter:   4  18:45:01  -0.30  -1.24   -15.341351    0      7      
iter:   5  18:45:10  -0.68  -1.48   -15.313859    0      6      
iter:   6  18:45:20  -1.10  -1.56   -15.458122    0      8      
iter:   7  18:45:29  -0.87  -1.21   -15.288077    0      8      
iter:   8  18:45:38  -0.96  -1.72   -15.271734    0      6      
iter:   9  18:45:46  -1.06  -1.91   -15.269563    0      5      
iter:  10  18:45:55  -1.84  -1.98   -15.300175    0      6      
iter:  11  18:46:04  -1.57  -1.26   -15.267196    0      6      
iter:  12  18:46:12  -1.89  -2.09   -15.266651    0      5      
iter:  13  18:46:21  -2.51  -2.13   -15.264860    0      5      
iter:  14  18:46:29  -2.53  -2.22   -15.306641    0      6      
iter:  15  18:46:38  -2.07  -1.25   -15.264330    0      6      
iter:  16  18:46:46  -2.27  -2.24   -15.264181    0      4      
iter:  17  18:46:54  -3.05  -2.28   -15.263852    0      4      
iter:  18  18:47:03  -2.78  -2.31   -15.321140    0      6      
iter:  19  18:47:11  -2.07  -1.24   -15.263079    0      6      
iter:  20  18:47:19  -2.25  -2.34   -15.263273    0      3      
iter:  21  18:47:26  -2.97  -2.36   -15.264286    0      4      
iter:  22  18:47:34  -3.10  -1.28   -15.263146    0      4      
iter:  23  18:47:41  -3.21  -2.34   -15.263179    0      2      
iter:  24  18:47:48  -3.54  -2.36   -15.263272    0      2      
iter:  25  18:47:56  -3.61  -2.36   -15.282804    0      5      
iter:  26  18:48:04  -3.01  -1.27   -15.263623    0      5      
iter:  27  18:48:11  -3.37  -1.28   -15.263142    0      3      
iter:  28  18:48:20  -3.29  -2.29   -15.283963    0      5      
iter:  29  18:48:28  -2.88  -1.27   -15.267811    0      5      
iter:  30  18:48:37  -3.31  -1.28   -15.264513    0      5      
iter:  31  18:48:45  -2.82  -2.23   -15.264795    0      4      
iter:  32  18:48:53  -3.19  -2.14   -15.264257    0      4      
iter:  33  18:49:01  -3.36  -2.25   -15.272162    0      5      
iter:  34  18:49:09  -2.94  -1.28   -15.264281    0      5      
iter:  35  18:49:17  -2.99  -2.25   -15.263997    0      4      
iter:  36  18:49:24  -3.58  -2.24   -15.264006    0      3      
iter:  37  18:49:33  -3.35  -2.21   -15.273465    0      5      
iter:  38  18:49:42  -2.93  -1.28   -15.263854    0      5      
iter:  39  18:49:49  -3.22  -2.29   -15.263698    0      4      
iter:  40  18:49:57  -3.53  -2.20   -15.263638    0      3      
iter:  41  18:50:05  -3.79  -2.28   -15.275789    0      5      
iter:  42  18:50:13  -3.03  -1.28   -15.263566    0      5      
iter:  43  18:50:21  -3.22  -2.31   -15.263464    0      4      
iter:  44  18:50:29  -3.46  -2.10   -15.263405    0      3      
iter:  45  18:50:37  -3.66  -2.26   -15.274652    0      5      
iter:  46  18:50:45  -2.98  -1.28   -15.263377    0      5      
iter:  47  18:50:53  -3.44  -2.32   -15.263547    0      4      
iter:  48  18:51:00  -3.29  -1.62   -15.263225    0      3      
iter:  49  18:51:08  -3.84  -2.15   -15.263509    0      4      
iter:  50  18:51:16  -3.24  -1.69   -15.263332    0      4      
iter:  51  18:51:24  -3.54  -2.30   -15.275104    0      5      
iter:  52  18:51:32  -2.78  -1.27   -15.263042    0      4      
iter:  53  18:51:40  -3.15  -2.08   -15.263356    0      3      
iter:  54  18:51:47  -3.67  -1.59   -15.263403    0      4      
iter:  55  18:51:55  -2.96  -2.31   -15.263364    0      3      
iter:  56  18:52:03  -3.84  -1.79   -15.263138    0      4      
iter:  57  18:52:11  -3.41  -1.83   -15.283682    0      5      
iter:  58  18:52:20  -2.47  -1.27   -15.283438    0      6      
iter:  59  18:52:28  -1.64  -1.58   -15.270719    0      6      
iter:  60  18:52:37  -1.72  -1.47   -15.297103    0      6      
iter:  61  18:52:46  -0.96  -1.63   -15.264824    0      6      
iter:  62  18:52:54  -2.08  -2.15   -15.265853    0      4      
iter:  63  18:53:03  -1.86  -1.71   -15.270210    0      5      
iter:  64  18:53:11  -2.70  -1.30   -15.264170    0      5      
iter:  65  18:53:19  -3.08  -2.25   -15.264331    0      4      
iter:  66  18:53:27  -2.58  -2.25   -15.264966    0      4      
iter:  67  18:53:35  -3.51  -1.76   -15.273894    0      5      
iter:  68  18:53:43  -2.87  -1.29   -15.263815    0      5      
iter:  69  18:53:51  -3.27  -2.28   -15.264030    0      4      
iter:  70  18:53:59  -3.03  -2.27   -15.264591    0      4      
iter:  71  18:54:07  -3.64  -1.73   -15.274040    0      5      
iter:  72  18:54:15  -3.10  -1.29   -15.263594    0      5      
iter:  73  18:54:22  -3.24  -2.29   -15.263789    0      4      
iter:  74  18:54:30  -3.30  -2.29   -15.265164    0      4      
iter:  75  18:54:38  -3.49  -1.55   -15.269936    0      5      
iter:  76  18:54:46  -3.30  -1.32   -15.263394    0      4      
iter:  77  18:54:54  -3.54  -2.30   -15.263626    0      4      
iter:  78  18:55:02  -3.43  -2.30   -15.266494    0      4      
iter:  79  18:55:10  -3.02  -1.37   -15.264269    0      4      
iter:  80  18:55:18  -3.27  -1.67   -15.263366    0      4      
iter:  81  18:55:25  -4.23  -2.32   -15.263508    0      4      
iter:  82  18:55:33  -3.33  -2.31   -15.279521    0      5      
iter:  83  18:55:42  -2.63  -1.27   -15.263317    0      5      
iter:  84  18:55:49  -3.16  -2.09   -15.263265    0      3      
iter:  85  18:55:57  -3.98  -2.19   -15.263230    0      3      
iter:  86  18:56:04  -3.54  -2.31   -15.265447    0      4      
iter:  87  18:56:13  -2.83  -1.28   -15.263903    0      4      
iter:  88  18:56:20  -3.39  -1.33   -15.263113    0      3      
iter:  89  18:56:28  -4.08  -2.30   -15.263217    0      3      
iter:  90  18:56:35  -4.31  -2.35   -15.263219    0      2      
iter:  91  18:56:43  -4.03  -2.32   -15.279964    0      5      
iter:  92  18:56:51  -3.43  -1.27   -15.263005    0      5      
iter:  93  18:56:58  -3.31  -1.43   -15.263037    0      2      
iter:  94  18:57:05  -3.97  -2.13   -15.263161    0      3      
iter:  95  18:57:12  -3.76  -2.33   -15.263167    0      2      
iter:  96  18:57:20  -3.73  -2.30   -15.273138    0      4      
iter:  97  18:57:28  -3.01  -1.27   -15.263057    0      4      
iter:  98  18:57:35  -3.15  -2.13   -15.263111    0      3      
iter:  99  18:57:43  -3.18  -2.16   -15.272462    0      4      
iter: 100  18:57:51  -3.02  -1.29   -15.266777    0      4      
iter: 101  18:57:59  -3.99  -1.32   -15.263124    0      4      
iter: 102  18:58:06  -3.40  -2.14   -15.263243    0      3      
iter: 103  18:58:14  -3.85  -2.16   -15.263732    0      4      
iter: 104  18:58:23  -3.36  -2.16   -15.274474    0      5      
iter: 105  18:58:31  -2.67  -1.28   -15.263413    0      5      
iter: 106  18:58:39  -3.34  -2.23   -15.272188    0      5      
iter: 107  18:58:47  -2.84  -1.36   -15.263286    0      4      
iter: 108  18:58:53  -3.42  -2.07   -15.263316    0      1      
iter: 109  18:59:01  -3.91  -2.08   -15.263913    0      4      
iter: 110  18:59:09  -4.10  -1.48   -15.264825    0      4      
iter: 111  18:59:17  -3.56  -1.28   -15.263376    0      4      
iter: 112  18:59:25  -3.07  -2.30   -15.263303    0      3      
iter: 113  18:59:32  -4.18  -2.33   -15.263577    0      3      
iter: 114  18:59:40  -3.70  -1.87   -15.279476    0      5      
iter: 115  18:59:48  -3.19  -1.27   -15.263238    0      5      
iter: 116  18:59:56  -3.18  -2.30   -15.263159    0      3      
iter: 117  19:00:03  -3.86  -2.20   -15.264165    0      3      
iter: 118  19:00:12  -3.33  -1.35   -15.263169    0      4      
iter: 119  19:00:20  -3.91  -2.35   -15.263237    0      3      
iter: 120  19:00:28  -3.31  -2.34   -15.267342    0      4      
iter: 121  19:00:36  -3.32  -1.30   -15.263335    0      4      
iter: 122  19:00:44  -3.58  -1.89   -15.263144    0      3      
iter: 123  19:00:51  -4.83  -2.27   -15.263147    0      3      
iter: 124  19:00:59  -4.03  -2.35   -15.263474    0      4      
iter: 125  19:01:07  -3.06  -2.26   -15.282523    0      5      
iter: 126  19:01:15  -2.88  -1.27   -15.263850    0      5      
iter: 127  19:01:23  -3.33  -1.30   -15.269936    0      4      
iter: 128  19:01:32  -1.29  -1.27   -15.480544    0      8      
iter: 129  19:01:41  -0.80  -1.35   -15.340077    0      7      
iter: 130  19:01:50  -0.68  -1.51   -15.300169    0      6      
iter: 131  19:01:59  -1.45  -1.76   -15.292601    0      7      
iter: 132  19:02:07  -0.73  -1.29   -15.283931    0      7      
iter: 133  19:02:15  -1.67  -1.85   -15.276843    0      5      
iter: 134  19:02:24  -1.76  -1.91   -15.273350    0      5      
iter: 135  19:02:32  -2.19  -1.97   -15.342729    0      7      
iter: 136  19:02:41  -1.47  -1.25   -15.268042    0      6      
iter: 137  19:02:49  -1.63  -2.07   -15.268177    0      4      
iter: 138  19:02:57  -2.33  -2.09   -15.266376    0      5      
iter: 139  19:03:05  -2.45  -2.15   -15.323564    0      6      
iter: 140  19:03:14  -1.84  -1.25   -15.265345    0      6      
iter: 141  19:03:22  -2.12  -2.19   -15.265066    0      4      
iter: 142  19:03:29  -2.76  -2.23   -15.264459    0      4      
iter: 143  19:03:37  -2.74  -2.26   -15.319827    0      6      
iter: 144  19:03:46  -2.02  -1.25   -15.263633    0      6      
iter: 145  19:03:53  -2.25  -2.30   -15.263746    0      3      
iter: 146  19:04:00  -2.85  -2.32   -15.263362    0      4      
iter: 147  19:04:09  -2.87  -2.35   -15.312086    0      6      
iter: 148  19:04:17  -2.22  -1.25   -15.262881    0      6      
iter: 149  19:04:24  -2.57  -1.99   -15.263299    0      3      
iter: 150  19:04:33  -2.46  -1.28   -15.275384    0      6      

Did not converge!

Here are some tips:

1) Make sure the geometry and spin-state is physically sound.
2) Use less aggressive density mixing.
3) Solve the eigenvalue problem more accurately at each scf-step.
4) Use a smoother distribution function for the occupation numbers.
5) Try adding more empty states.
6) Use enough k-points.
7) Don't let your structure optimization algorithm take too large steps.
8) Solve the Poisson equation more accurately.
9) Better initial guess for the wave functions.

See details here:

    https://wiki.fysik.dtu.dk/gpaw/documentation/convergence.html


Timing:                                      incl.     excl.
-------------------------------------------------------------------
Density initialized from wave functions:     0.164     0.164   0.0% |
 Symmetrize density:                         0.000     0.000   0.0% |
Forces:                                      0.992     0.992   0.0% |
Hamiltonian:                                28.971     0.000   0.0% |
 Atomic:                                     0.671     0.003   0.0% |
  XC Correction:                             0.668     0.668   0.0% |
 Calculate atomic Hamiltonians:              0.027     0.027   0.0% |
 Communicate:                                0.000     0.000   0.0% |
 Hartree integrate/restrict:                 0.143     0.143   0.0% |
 Initialize Hamiltonian:                     0.000     0.000   0.0% |
 Poisson:                                   19.452    19.452   1.0% |
 XC 3D grid:                                 8.651     8.651   0.4% |
 vbar:                                       0.027     0.027   0.0% |
LCAO initialization:                         0.921     0.644   0.0% |
 LCAO eigensolver:                           0.080     0.000   0.0% |
  Calculate projections:                     0.000     0.000   0.0% |
  DenseAtomicCorrection:                     0.000     0.000   0.0% |
  Distribute overlap matrix:                 0.000     0.000   0.0% |
  Orbital Layouts:                           0.000     0.000   0.0% |
  Potential matrix:                          0.079     0.079   0.0% |
 LCAO to grid:                               0.193     0.193   0.0% |
 Set positions (LCAO WFS):                   0.005     0.000   0.0% |
  Basic WFS set positions:                   0.000     0.000   0.0% |
  Basis functions set positions:             0.000     0.000   0.0% |
  TCI: Calculate S, T, P:                    0.005     0.005   0.0% |
Redistribute:                                0.001     0.001   0.0% |
SCF-cycle:                                2008.849     0.110   0.0% |
 Davidson:                                 713.545   114.269   5.6% |-|
  Apply hamiltonian:                        47.172    47.172   2.3% ||
  Subspace diag:                           213.036     0.027   0.0% |
   calc_h_matrix:                          105.835    58.420   2.9% ||
    Apply hamiltonian:                      47.415    47.415   2.3% ||
   diagonalize:                              0.061     0.061   0.0% |
   rotate_psi:                             107.113   107.113   5.2% |-|
  calc. matrices:                          232.703   185.559   9.1% |---|
   Apply hamiltonian:                       47.144    47.144   2.3% ||
  diagonalize:                               0.219     0.219   0.0% |
  rotate_psi:                              106.147   106.147   5.2% |-|
 Density:                                   24.461     0.006   0.0% |
  Atomic density matrices:                   0.183     0.183   0.0% |
  Mix:                                      16.996    16.996   0.8% |
  Multipole moments:                         0.048     0.048   0.0% |
  Pseudo density:                            7.228     7.223   0.4% |
   Symmetrize density:                       0.005     0.005   0.0% |
 Hamiltonian:                             1269.739     0.031   0.0% |
  Atomic:                                   55.932     0.242   0.0% |
   XC Correction:                           55.691    55.691   2.7% ||
  Calculate atomic Hamiltonians:             2.358     2.358   0.1% |
  Communicate:                               0.002     0.002   0.0% |
  Hartree integrate/restrict:               10.790    10.790   0.5% |
  Poisson:                                 452.525   452.525  22.2% |--------|
  XC 3D grid:                              745.790   745.790  36.5% |--------------|
  vbar:                                      2.311     2.311   0.1% |
 Orthonormalize:                             0.994     0.000   0.0% |
  calc_s_matrix:                             0.393     0.393   0.0% |
  inverse-cholesky:                          0.001     0.001   0.0% |
  projections:                               0.097     0.097   0.0% |
  rotate_psi_s:                              0.502     0.502   0.0% |
Set symmetry:                                0.001     0.001   0.0% |
Other:                                       1.677     1.677   0.1% |
-------------------------------------------------------------------
Total:                                              2041.576 100.0%

Memory usage: 598.45 MiB
Date: Mon Aug 20 19:04:38 2018
