
  ___ ___ ___ _ _ _  
 |   |   |_  | | | | 
 | | | | | . | | | | 
 |__ |  _|___|_____|  1.4.0
 |___|_|             

User:   ???@3fe09ff0504a
Date:   Mon Aug 20 18:21:08 2018
Arch:   x86_64
Pid:    1631
Python: 3.7.0
gpaw:   /app/gpaw/software/venv/lib/python3.7/site-packages/gpaw
_gpaw:  /app/gpaw/software/venv/lib/python3.7/site-packages/
        _gpaw.cpython-37m-x86_64-linux-gnu.so
ase:    /app/gpaw/software/venv/lib/python3.7/site-packages/ase (version 3.16.2)
numpy:  /app/gpaw/software/venv/lib/python3.7/site-packages/numpy (version 1.15.0)
scipy:  /app/gpaw/software/venv/lib/python3.7/site-packages/scipy (version 1.1.0)
units:  Angstrom and eV
cores:  1

Input parameters:
  gpts: [72 64 72]
  maxiter: 150
  mixer: {backend: pulay,
          beta: None,
          method: separate,
          nmaxold: None,
          weight: None}
  xc: AM05

System changes: positions, numbers, cell, pbc, initial_charges, initial_magmoms 

Initialize ...

Hf-setup:
  name: Hafnium
  id: be1dbd46b0dbeba81c91d934642692d8
  Z: 72
  valence: 12
  core: 60
  charge: 0.0
  file: /app/gpaw/datasets/Hf.AM05
  cutoffs: 1.30(comp), 2.36(filt), 4.02(core), lmax=2
  valence states:
                energy  radius
    5s(2.00)   -66.868   1.397
    6s(2.00)    -5.050   1.397
    5p(6.00)   -35.616   1.307
    6p(0.00)    -1.329   1.307
    5d(2.00)    -2.680   1.334
    *d          24.531   1.334

  Using partial waves for Hf as LCAO basis

N-setup:
  name: Nitrogen
  id: 88d9dd47e7323d02b4d7c482efef5f01
  Z: 7
  valence: 5
  core: 2
  charge: 0.0
  file: /app/gpaw/datasets/N.AM05
  cutoffs: 0.58(comp), 1.11(filt), 0.96(core), lmax=2
  valence states:
                energy  radius
    2s(2.00)   -18.394   0.603
    2p(3.00)    -7.016   0.529
    *s           8.817   0.603
    *p          20.196   0.529
    *d           0.000   0.577

  Using partial waves for N as LCAO basis

C-setup:
  name: Carbon
  id: 4a6a211abac4d3f657566037c586fc49
  Z: 6
  valence: 4
  core: 2
  charge: 0.0
  file: /app/gpaw/datasets/C.AM05
  cutoffs: 0.64(comp), 1.14(filt), 1.14(core), lmax=2
  valence states:
                energy  radius
    2s(2.00)   -13.603   0.635
    2p(2.00)    -5.213   0.635
    *s          13.608   0.635
    *p          21.998   0.635
    *d           0.000   0.635

  Using partial waves for C as LCAO basis

Reference energy: -412143.985896

Spin-paired calculation

Occupation numbers:
  Fermi-Dirac: width=0.0000 eV

Convergence criteria:
  Maximum total energy change: 0.0005 eV / electron
  Maximum integral of absolute density change: 0.0001 electrons
  Maximum integral of absolute eigenstate change: 4e-08 eV^2
  Maximum number of iterations: 150

Symmetries present (total): 1

  ( 1  0  0)
  ( 0  1  0)
  ( 0  0  1)

1 k-point (Gamma)
1 k-point in the irreducible part of the Brillouin zone
       k-points in crystal coordinates                weights
   0:     0.00000000    0.00000000    0.00000000          1/1

Wave functions: Uniform real-space grid
  Kinetic energy operator: 6*3+1=19 point O(h^6) finite-difference Laplacian
  ScaLapack parameters: grid=1x1, blocksize=None 

Eigensolver
   Davidson(niter=1, smin=None, normalize=True) 

Densities:
  Coarse grid: 72*64*72 grid
  Fine grid: 144*128*144 grid
  Total Charge: 0.000000 

Density mixing:
  Method: separate
  Backend: pulay
  Linear mixing parameter: 0.25
  Mixing with 3 old densities
  No damping of long wave oscillations 

Hamiltonian:
  XC and Coulomb potentials evaluated on a 144*128*144 grid
  Using the AM05 Exchange-Correlation functional
  Interpolation: tri-quintic (5. degree polynomial)
  Poisson solver: Jacobi solver with 5 multi-grid levels
    Coarsest grid: 9 x 8 x 9 points
    Stencil: 6*3+1=19 point O(h^6) finite-difference Laplacian
    Max iterations: 1000
    Tolerance: 2.000000e-10 

Memory estimate:
  Process memory now: 41.68 MiB
  Calculator: 325.36 MiB
    Density: 113.90 MiB
      Arrays: 64.29 MiB
      Localized functions: 35.07 MiB
      Mixer: 14.54 MiB
    Hamiltonian: 92.51 MiB
      Arrays: 42.05 MiB
      XC: 0.00 MiB
      Poisson: 48.10 MiB
      vbar: 2.35 MiB
    Wavefunctions: 118.96 MiB
      Arrays psit_nG: 50.88 MiB
      Eigensolver: 63.03 MiB
      Projections: 0.01 MiB
      Projectors: 5.04 MiB

Total number of cores used: 1

Number of atoms: 3
Number of atomic orbitals: 21
Number of bands in calculation: 21
Bands to converge: occupied states only
Number of valence electrons: 21

... initialized

Initializing position-dependent things.

Density initialized from atomic densities
Creating initial wave functions:
  21 bands from LCAO basis set

      .--------------------.  
     /|                    |  
    / |                    |  
   /  |                    |  
  /   |                    |  
 *    |                    |  
 |    |                    |  
 |    |     Hf   C         |  
 |    |    N               |  
 |    |                    |  
 |    .--------------------.  
 |   /                    /   
 |  /                    /    
 | /                    /     
 |/                    /      
 *--------------------*       

Positions:
   0 Hf     3.335050    4.906250    4.250000    ( 0.0000,  0.0000,  0.0000)
   1 N      3.335050    3.093750    4.250000    ( 0.0000,  0.0000,  0.0000)
   2 C      5.164950    4.906250    4.250000    ( 0.0000,  0.0000,  0.0000)

Unit cell:
           periodic     x           y           z      points  spacing
  1. axis:    no     8.500000    0.000000    0.000000    72     0.1181
  2. axis:    no     0.000000    8.000000    0.000000    64     0.1250
  3. axis:    no     0.000000    0.000000    8.500000    72     0.1181

  Lengths:   8.500000   8.000000   8.500000
  Angles:   90.000000  90.000000  90.000000

Effective grid spacing dv^(1/3) = 0.1203

                     log10-error:    total        iterations:
           time      wfs    density  energy       fermi  poisson
iter:   1  18:21:25  +2.42   +inf   -19.105681    0      15     
iter:   2  18:21:29  +1.13   +inf   -19.646675    0             
iter:   3  18:21:32  +0.57   +inf   -19.820728    0             
iter:   4  18:21:43  +0.58  -0.70   -17.068630    0      11     
iter:   5  18:21:54  +0.85  -0.76   -15.817078    0      9      
iter:   6  18:22:06  +0.52  -0.97   -15.053495    0      9      
iter:   7  18:22:16  +0.22  -1.19   -14.905534    0      9      
iter:   8  18:22:27  +0.48  -1.49   -14.931850    0      8      
iter:   9  18:22:37  -0.18  -1.67   -14.939302    0      7      
iter:  10  18:22:47  +0.11  -1.96   -14.945030    0      5      
iter:  11  18:22:56  -0.74  -2.21   -14.948487    0      5      
iter:  12  18:23:04  -0.58  -2.37   -14.950328    0      4      
iter:  13  18:23:12  -1.20  -2.58   -14.951492    0      4      
iter:  14  18:23:21  -1.07  -2.64   -14.952243    0      5      
iter:  15  18:23:30  -1.67  -3.08   -14.952258    0      4      
iter:  16  18:23:38  -1.42  -3.12   -14.952835    0      4      
iter:  17  18:23:47  -2.08  -3.32   -14.953096    0      3      
iter:  18  18:23:55  -1.78  -3.29   -14.953334    0      3      
iter:  19  18:24:03  -2.44  -3.73   -14.953480    0      2      
iter:  20  18:24:11  -2.14  -3.68   -14.953375    0      2      
iter:  21  18:24:19  -2.77  -3.65   -14.953344    0      2      
iter:  22  18:24:27  -2.47  -3.46   -14.953422    0      2      
iter:  23  18:24:35  -3.08  -3.44   -14.953421    0      3      
iter:  24  18:24:44  -2.79  -3.46   -14.953456    0      3      
iter:  25  18:24:52  -3.36  -3.37   -14.953602    0      2      
iter:  26  18:25:00  -3.21  -3.43   -14.953562    0      3      
iter:  27  18:25:08  -3.72  -3.56   -14.953658    0      3      
iter:  28  18:25:15  -3.59  -3.91   -14.953494    0      2      
iter:  29  18:25:23  -4.03  -4.22   -14.953444    0      2      
iter:  30  18:25:29  -3.92  -4.63   -14.953483    0      1      
iter:  31  18:25:37  -4.34  -4.67   -14.953456    0      1      
iter:  32  18:25:44  -4.25  -4.68   -14.953447    0      1      
iter:  33  18:25:52  -4.64  -4.75   -14.953463    0      1      
iter:  34  18:26:00  -4.52  -5.09   -14.953453    0      1      
iter:  35  18:26:08  -4.93  -5.17   -14.953445    0      1      
iter:  36  18:26:15  -4.82  -5.15   -14.953413    0      1      
iter:  37  18:26:22  -5.23  -4.89   -14.953440    0      1      
iter:  38  18:26:29  -5.09  -5.08   -14.953429    0      1      
iter:  39  18:26:36  -5.52  -5.03   -14.953426    0      1      
iter:  40  18:26:43  -5.38  -5.00   -14.953404    0      1      
iter:  41  18:26:50  -5.81  -4.91   -14.953480    0      1      
iter:  42  18:26:57  -5.69  -4.96   -14.953451    0      1      
iter:  43  18:27:05  -6.13  -5.14   -14.953453    0      1      
iter:  44  18:27:12  -5.98  -5.22   -14.953469    0      1      
iter:  45  18:27:20  -6.41  -5.65   -14.953428    0      1      
iter:  46  18:27:28  -6.30  -5.88   -14.953422    0      1      
iter:  47  18:27:35  -6.69  -6.12   -14.953420    0      1      
iter:  48  18:27:42  -6.58  -6.06   -14.953418    0      1      
iter:  49  18:27:48  -6.97  -6.52   -14.953419    0      1      
iter:  50  18:27:55  -6.86  -6.48   -14.953419    0      1      
iter:  51  18:28:01  -7.25  -6.38   -14.953418    0      1      
iter:  52  18:28:08  -7.14  -6.20   -14.953418    0      1      
iter:  53  18:28:15  -7.52  -6.18   -14.953418    0      1      

Converged after 53 iterations.

Dipole moment: (-0.941653, 1.235135, -0.000000) |e|*Ang

Energy contributions relative to reference atoms: (reference = -412143.985896)

Kinetic:        +19.997446
Potential:      -16.239817
External:        +0.000000
XC:             -18.521567
Entropy (-ST):   +0.000000
Local:           -0.189481
--------------------------
Free energy:    -14.953418
Extrapolated:   -14.953418

Fermi level: -4.92853

 Band  Eigenvalues  Occupancy
    0    -65.07738    2.00000
    1    -34.39217    2.00000
    2    -34.30491    2.00000
    3    -34.19668    2.00000
    4    -15.64218    2.00000
    5    -12.25682    2.00000
    6     -6.52142    2.00000
    7     -5.50863    2.00000
    8     -5.35962    2.00000
    9     -4.97943    2.00000
   10     -4.92853    1.00000
   11     -3.50133    0.00000
   12     -2.85859    0.00000
   13     -1.15684    0.00000
   14     -0.58146    0.00000
   15      0.56877    0.00000
   16      0.93835    0.00000
   17      1.66147    0.00000
   18      2.31335    0.00000
   19      2.66634    0.00000
   20      3.31159    0.00000

Writing to 3_57799_Pm_AM05_1534789268.gpw (mode='all')

Timing:                              incl.     excl.
-----------------------------------------------------------
Hamiltonian:                        11.546     0.000   0.0% |
 Atomic:                             0.248     0.001   0.0% |
  XC Correction:                     0.247     0.247   0.1% |
 Calculate atomic Hamiltonians:      0.011     0.011   0.0% |
 Communicate:                        0.000     0.000   0.0% |
 Hartree integrate/restrict:         0.065     0.065   0.0% |
 Initialize Hamiltonian:             0.000     0.000   0.0% |
 Poisson:                            7.397     7.397   1.7% ||
 XC 3D grid:                         3.810     3.810   0.9% |
 vbar:                               0.014     0.014   0.0% |
LCAO initialization:                 0.862     0.604   0.1% |
 LCAO eigensolver:                   0.079     0.000   0.0% |
  Calculate projections:             0.000     0.000   0.0% |
  DenseAtomicCorrection:             0.000     0.000   0.0% |
  Distribute overlap matrix:         0.000     0.000   0.0% |
  Orbital Layouts:                   0.000     0.000   0.0% |
  Potential matrix:                  0.078     0.078   0.0% |
 LCAO to grid:                       0.174     0.174   0.0% |
 Set positions (LCAO WFS):           0.005     0.000   0.0% |
  Basic WFS set positions:           0.000     0.000   0.0% |
  Basis functions set positions:     0.000     0.000   0.0% |
  TCI: Calculate S, T, P:            0.004     0.004   0.0% |
SCF-cycle:                         413.062     0.023   0.0% |
 Davidson:                         177.021    25.235   5.9% |-|
  Apply hamiltonian:                10.308    10.308   2.4% ||
  Subspace diag:                    52.430     0.006   0.0% |
   calc_h_matrix:                   25.035    14.805   3.5% ||
    Apply hamiltonian:              10.230    10.230   2.4% ||
   diagonalize:                      0.013     0.013   0.0% |
   rotate_psi:                      27.376    27.376   6.4% |--|
  calc. matrices:                   60.848    50.469  11.8% |----|
   Apply hamiltonian:               10.379    10.379   2.4% ||
  diagonalize:                       0.045     0.045   0.0% |
  rotate_psi:                       28.156    28.156   6.6% |--|
 Density:                            5.551     0.001   0.0% |
  Atomic density matrices:           0.039     0.039   0.0% |
  Mix:                               3.752     3.752   0.9% |
  Multipole moments:                 0.010     0.010   0.0% |
  Pseudo density:                    1.749     1.748   0.4% |
   Symmetrize density:               0.001     0.001   0.0% |
 Hamiltonian:                      230.243     0.006   0.0% |
  Atomic:                           11.374     0.049   0.0% |
   XC Correction:                   11.325    11.325   2.7% ||
  Calculate atomic Hamiltonians:     0.470     0.470   0.1% |
  Communicate:                       0.000     0.000   0.0% |
  Hartree integrate/restrict:        2.368     2.368   0.6% |
  Poisson:                          67.381    67.381  15.8% |-----|
  XC 3D grid:                      148.076   148.076  34.7% |-------------|
  vbar:                              0.567     0.567   0.1% |
 Orthonormalize:                     0.224     0.000   0.0% |
  calc_s_matrix:                     0.091     0.091   0.0% |
  inverse-cholesky:                  0.000     0.000   0.0% |
  projections:                       0.029     0.029   0.0% |
  rotate_psi_s:                      0.103     0.103   0.0% |
Set symmetry:                        0.001     0.001   0.0% |
Other:                               1.342     1.342   0.3% |
-----------------------------------------------------------
Total:                                       426.813 100.0%

Memory usage: 597.93 MiB
Date: Mon Aug 20 18:28:15 2018
