
  ___ ___ ___ _ _ _  
 |   |   |_  | | | | 
 | | | | | . | | | | 
 |__ |  _|___|_____|  1.4.0
 |___|_|             

User:   ???@3fe09ff0504a
Date:   Mon Aug 20 04:32:35 2018
Arch:   x86_64
Pid:    39
Python: 3.7.0
gpaw:   /app/gpaw/software/venv/lib/python3.7/site-packages/gpaw
_gpaw:  /app/gpaw/software/venv/lib/python3.7/site-packages/
        _gpaw.cpython-37m-x86_64-linux-gnu.so
ase:    /app/gpaw/software/venv/lib/python3.7/site-packages/ase (version 3.16.2)
numpy:  /app/gpaw/software/venv/lib/python3.7/site-packages/numpy (version 1.15.0)
scipy:  /app/gpaw/software/venv/lib/python3.7/site-packages/scipy (version 1.1.0)
units:  Angstrom and eV
cores:  1

Input parameters:
  gpts: [56 40 40]
  maxiter: 150
  mixer: {backend: pulay,
          beta: None,
          method: separate,
          nmaxold: None,
          weight: None}
  xc: PBE

System changes: positions, numbers, cell, pbc, initial_charges, initial_magmoms 

Initialize ...

Hf-setup:
  name: Hafnium
  id: d03a45b6fa1dd7f07e443d1513edf499
  Z: 72
  valence: 12
  core: 60
  charge: 0.0
  file: /app/gpaw/datasets/Hf.PBE
  cutoffs: 1.30(comp), 2.36(filt), 4.02(core), lmax=2
  valence states:
                energy  radius
    5s(2.00)   -66.831   1.397
    6s(2.00)    -5.097   1.397
    5p(6.00)   -35.599   1.307
    6p(0.00)    -1.401   1.307
    5d(2.00)    -2.699   1.334
    *d          24.513   1.334

  Using partial waves for Hf as LCAO basis

N-setup:
  name: Nitrogen
  id: 45c8c9c739e7b131496b9fd2deb94bff
  Z: 7
  valence: 5
  core: 2
  charge: 0.0
  file: /app/gpaw/datasets/N.PBE
  cutoffs: 0.58(comp), 1.11(filt), 0.96(core), lmax=2
  valence states:
                energy  radius
    2s(2.00)   -18.583   0.603
    2p(3.00)    -7.089   0.529
    *s           8.629   0.603
    *p          20.123   0.529
    *d           0.000   0.577

  Using partial waves for N as LCAO basis

C-setup:
  name: Carbon
  id: 2f012631b351e3618121587a96c50fca
  Z: 6
  valence: 4
  core: 2
  charge: 0.0
  file: /app/gpaw/datasets/C.PBE
  cutoffs: 0.64(comp), 1.14(filt), 1.14(core), lmax=2
  valence states:
                energy  radius
    2s(2.00)   -13.751   0.635
    2p(2.00)    -5.285   0.635
    *s          13.461   0.635
    *p          21.927   0.635
    *d           0.000   0.635

  Using partial waves for C as LCAO basis

Reference energy: -412395.464894

Spin-paired calculation

Occupation numbers:
  Fermi-Dirac: width=0.0000 eV

Convergence criteria:
  Maximum total energy change: 0.0005 eV / electron
  Maximum integral of absolute density change: 0.0001 electrons
  Maximum integral of absolute eigenstate change: 4e-08 eV^2
  Maximum number of iterations: 150

Symmetries present (total): 1

  ( 1  0  0)
  ( 0  1  0)
  ( 0  0  1)

1 k-point (Gamma)
1 k-point in the irreducible part of the Brillouin zone
       k-points in crystal coordinates                weights
   0:     0.00000000    0.00000000    0.00000000          1/1

Wave functions: Uniform real-space grid
  Kinetic energy operator: 6*3+1=19 point O(h^6) finite-difference Laplacian
  ScaLapack parameters: grid=1x1, blocksize=None 

Eigensolver
   Davidson(niter=1, smin=None, normalize=True) 

Densities:
  Coarse grid: 56*40*40 grid
  Fine grid: 112*80*80 grid
  Total Charge: 0.000000 

Density mixing:
  Method: separate
  Backend: pulay
  Linear mixing parameter: 0.25
  Mixing with 3 old densities
  No damping of long wave oscillations 

Hamiltonian:
  XC and Coulomb potentials evaluated on a 112*80*80 grid
  Using the PBE Exchange-Correlation functional
  Interpolation: tri-quintic (5. degree polynomial)
  Poisson solver: Jacobi solver with 5 multi-grid levels
    Coarsest grid: 7 x 5 x 5 points
    Stencil: 6*3+1=19 point O(h^6) finite-difference Laplacian
    Max iterations: 1000
    Tolerance: 2.000000e-10 

Memory estimate:
  Process memory now: 41.70 MiB
  Calculator: 93.50 MiB
    Density: 36.21 MiB
      Arrays: 17.13 MiB
      Localized functions: 15.24 MiB
      Mixer: 3.83 MiB
    Hamiltonian: 25.06 MiB
      Arrays: 11.21 MiB
      XC: 0.00 MiB
      Poisson: 12.83 MiB
      vbar: 1.02 MiB
    Wavefunctions: 32.23 MiB
      Arrays psit_nG: 13.40 MiB
      Eigensolver: 16.63 MiB
      Projections: 0.01 MiB
      Projectors: 2.19 MiB

Total number of cores used: 1

Number of atoms: 3
Number of atomic orbitals: 21
Number of bands in calculation: 21
Bands to converge: occupied states only
Number of valence electrons: 21

... initialized

Initializing position-dependent things.

Density initialized from atomic densities
Creating initial wave functions:
  21 bands from LCAO basis set

     .--------------------.  
    /|                    |  
   / |                    |  
  /  |                    |  
 *   |                    |  
 |   |                    |  
 |   |    N  Hf  C        |  
 |   |                    |  
 |   .--------------------.  
 |  /                    /   
 | /                    /    
 |/                    /     
 *--------------------*      

Positions:
   0 Hf     3.950000    3.250000    3.250000    ( 0.0000,  0.0000,  0.0000)
   1 N      2.750000    3.250000    3.250000    ( 0.0000,  0.0000,  0.0000)
   2 C      5.750000    3.250000    3.250000    ( 0.0000,  0.0000,  0.0000)

Unit cell:
           periodic     x           y           z      points  spacing
  1. axis:    no     8.500000    0.000000    0.000000    56     0.1518
  2. axis:    no     0.000000    6.500000    0.000000    40     0.1625
  3. axis:    no     0.000000    0.000000    6.500000    40     0.1625

  Lengths:   8.500000   6.500000   6.500000
  Angles:   90.000000  90.000000  90.000000

Effective grid spacing dv^(1/3) = 0.1588

                     log10-error:    total        iterations:
           time      wfs    density  energy       fermi  poisson
iter:   1  04:32:41  +2.41   +inf     2.856398    0      15     
iter:   2  04:32:41  +1.28   +inf     1.851432    0             
iter:   3  04:32:42  +0.65   +inf     1.651927    0             
iter:   4  04:32:45  +0.56  -0.63     7.381536    0      8      
iter:   5  04:32:47  +0.49  -0.90     8.258820    0      8      
iter:   6  04:32:50  +0.47  -1.13     8.265019    0      7      
iter:   7  04:32:52  +0.20  -1.26     8.186512    0      7      
iter:   8  04:32:55  +0.08  -1.34     8.117443    0      7      
iter:   9  04:32:57  -0.22  -1.42     8.089811    0      6      
iter:  10  04:33:00  -0.62  -1.43     8.090348    0      6      
iter:  11  04:33:02  -0.83  -1.44     8.082711    0      6      
iter:  12  04:33:04  -1.17  -1.47     8.051449    0      7      
iter:  13  04:33:06  -1.63  -1.47     8.065529    0      6      
iter:  14  04:33:08  -1.69  -1.49     8.067405    0      4      
iter:  15  04:33:11  -1.46  -1.50     8.001875    0      8      
iter:  16  04:33:13  -1.35  -1.40     8.016360    0      7      
iter:  17  04:33:15  -1.76  -1.44     8.048246    0      7      
iter:  18  04:33:17  -1.47  -1.49     8.021670    0      7      
iter:  19  04:33:20  -1.85  -1.46     8.051868    0      6      
iter:  20  04:33:22  -2.38  -1.51     8.063868    0      6      
iter:  21  04:33:24  -2.51  -1.54     8.047351    0      6      
iter:  22  04:33:26  -2.19  -1.49     8.059666    0      6      
iter:  23  04:33:28  -3.32  -1.53     8.061150    0      5      
iter:  24  04:33:30  -3.19  -1.54     8.051319    0      6      
iter:  25  04:33:33  -3.13  -1.51     8.055990    0      5      
iter:  26  04:33:35  -3.17  -1.52     8.054276    0      6      
iter:  27  04:33:37  -2.94  -1.52     8.057983    0      6      
iter:  28  04:33:39  -3.13  -1.53     8.060606    0      5      
iter:  29  04:33:41  -4.09  -1.53     8.061125    0      5      
iter:  30  04:33:43  -4.56  -1.53     8.062335    0      4      
iter:  31  04:33:45  -5.11  -1.54     8.062701    0      4      
iter:  32  04:33:47  -5.09  -1.54     8.062762    0      3      
iter:  33  04:33:48  -5.51  -1.54     8.063019    0      3      
iter:  34  04:33:50  -5.77  -1.54     8.063057    0      3      
iter:  35  04:33:52  -5.81  -1.54     8.063087    0      2      
iter:  36  04:33:54  -6.03  -1.54     8.063113    0      2      
iter:  37  04:33:55  -6.16  -1.54     8.063118    0      2      
iter:  38  04:33:57  -4.03  -1.54     8.061121    0      5      
iter:  39  04:34:00  -2.30  -1.53     7.996947    0      7      
iter:  40  04:34:02  -2.40  -1.40     8.036490    0      7      
iter:  41  04:34:04  -2.84  -1.48     8.060808    0      6      
iter:  42  04:34:07  -1.65  -1.54     7.883971    0      8      
iter:  43  04:34:09  -1.48  -1.26     8.023114    0      8      
iter:  44  04:34:12  -1.23  -1.45     7.851364    0      9      
iter:  45  04:34:14  -0.90  -1.25     8.055560    0      8      
iter:  46  04:34:16  -1.46  -1.51     8.051700    0      5      
iter:  47  04:34:19  -1.31  -1.51     7.821994    0      9      
iter:  48  04:34:21  -1.05  -1.23     8.002792    0      8      
iter:  49  04:34:24  -1.47  -1.41     8.048633    0      7      
iter:  50  04:34:26  -1.36  -1.51     8.054343    0      5      
iter:  51  04:34:28  -2.51  -1.52     8.046296    0      6      
iter:  52  04:34:30  -2.89  -1.50     8.061608    0      6      
iter:  53  04:34:32  -2.63  -1.53     8.056634    0      5      
iter:  54  04:34:34  -3.06  -1.53     8.062305    0      5      
iter:  55  04:34:36  -3.83  -1.54     8.061141    0      4      
iter:  56  04:34:38  -1.54  -1.54     7.792653    0      8      
iter:  57  04:34:41  -1.50  -1.22     7.995856    0      8      
iter:  58  04:34:43  -1.97  -1.41     8.051745    0      7      
iter:  59  04:34:45  -1.29  -1.51     7.805933    0      8      
iter:  60  04:34:48  -0.90  -1.24     8.027843    0      8      
iter:  61  04:34:50  -1.53  -1.46     8.060059    0      6      
iter:  62  04:34:52  -1.22  -1.53     7.792964    0      8      
iter:  63  04:34:55  -0.83  -1.23     8.009011    0      8      
iter:  64  04:34:57  -1.34  -1.42     7.999881    0      8      
iter:  65  04:34:59  -1.06  -1.42     8.046172    0      7      
iter:  66  04:35:02  -2.49  -1.50     8.050328    0      6      
iter:  67  04:35:04  -2.80  -1.51     8.060582    0      6      
iter:  68  04:35:06  -3.28  -1.54     8.062987    0      4      
iter:  69  04:35:08  -4.14  -1.55     8.058268    0      5      
iter:  70  04:35:10  -4.22  -1.53     8.061932    0      5      
iter:  71  04:35:12  -2.59  -1.54     8.003616    0      7      
iter:  72  04:35:14  -2.50  -1.43     8.042364    0      7      
iter:  73  04:35:16  -2.93  -1.49     8.051386    0      5      
iter:  74  04:35:19  -1.50  -1.51     7.803740    0      9      
iter:  75  04:35:21  -1.41  -1.23     8.006976    0      8      
iter:  76  04:35:24  -1.49  -1.42     7.992961    0      8      
iter:  77  04:35:26  -1.15  -1.41     8.033235    0      7      
iter:  78  04:35:28  -2.40  -1.48     8.051274    0      7      
iter:  79  04:35:31  -2.42  -1.51     8.052163    0      6      
iter:  80  04:35:33  -3.02  -1.52     8.060142    0      5      
iter:  81  04:35:35  -4.04  -1.53     8.061407    0      5      
iter:  82  04:35:37  -3.94  -1.54     8.061999    0      4      
iter:  83  04:35:38  -4.50  -1.54     8.062688    0      3      
iter:  84  04:35:40  -5.10  -1.54     8.062602    0      3      
iter:  85  04:35:42  -5.11  -1.54     8.062940    0      3      
iter:  86  04:35:44  -5.51  -1.54     8.062976    0      1      
iter:  87  04:35:46  -1.28  -1.54     7.682767    0      9      
iter:  88  04:35:49  -1.28  -1.14     7.982424    0      9      
iter:  89  04:35:51  -1.76  -1.38     8.049502    0      7      
iter:  90  04:35:54  -1.36  -1.50     7.823766    0      9      
iter:  91  04:35:56  -1.22  -1.24     8.028766    0      8      
iter:  92  04:35:58  -1.53  -1.46     8.061593    0      7      
iter:  93  04:36:01  -1.27  -1.53     7.812054    0      9      
iter:  94  04:36:03  -0.89  -1.23     8.013771    0      8      
iter:  95  04:36:06  -1.19  -1.43     7.888446    0      9      
iter:  96  04:36:08  -0.86  -1.29     8.049518    0      8      
iter:  97  04:36:10  -1.70  -1.50     8.055027    0      5      
iter:  98  04:36:12  -1.36  -1.52     7.802391    0      9      
iter:  99  04:36:14  -1.08  -1.23     8.002104    0      8      
iter: 100  04:36:17  -1.45  -1.41     8.050860    0      7      
iter: 101  04:36:19  -1.15  -1.50     7.796814    0      9      
iter: 102  04:36:21  -0.73  -1.23     8.020878    0      8      
iter: 103  04:36:24  -1.40  -1.44     8.046815    0      7      
iter: 104  04:36:26  -1.31  -1.51     8.005674    0      7      
iter: 105  04:36:28  -1.62  -1.43     8.060267    0      7      
iter: 106  04:36:30  -1.57  -1.54     7.807528    0      9      
iter: 107  04:36:33  -1.52  -1.23     8.016799    0      8      
iter: 108  04:36:35  -1.83  -1.44     8.046616    0      7      
iter: 109  04:36:37  -1.46  -1.51     7.998906    0      7      
iter: 110  04:36:39  -1.81  -1.42     8.058888    0      7      
iter: 111  04:36:41  -1.49  -1.53     7.794400    0      9      
iter: 112  04:36:44  -1.42  -1.23     8.010027    0      8      
iter: 113  04:36:46  -1.66  -1.43     8.034803    0      6      
iter: 114  04:36:48  -1.25  -1.47     7.799572    0      9      
iter: 115  04:36:50  -0.89  -1.23     8.013985    0      8      
iter: 116  04:36:53  -1.42  -1.43     8.041331    0      6      
iter: 117  04:36:55  -1.22  -1.48     7.797867    0      9      
iter: 118  04:36:57  -0.88  -1.23     8.004448    0      8      
iter: 119  04:36:59  -1.46  -1.42     8.044001    0      7      
iter: 120  04:37:02  -1.19  -1.49     7.801629    0      9      
iter: 121  04:37:04  -0.81  -1.23     7.985638    0      8      
iter: 122  04:37:06  -1.62  -1.39     8.042193    0      7      
iter: 123  04:37:09  -1.18  -1.49     7.800015    0      9      
iter: 124  04:37:11  -0.77  -1.23     7.994900    0      8      
iter: 125  04:37:13  -1.61  -1.41     8.039543    0      7      
iter: 126  04:37:16  -1.19  -1.48     7.800592    0      9      
iter: 127  04:37:18  -0.79  -1.23     7.991904    0      8      
iter: 128  04:37:20  -1.61  -1.40     8.038367    0      7      
iter: 129  04:37:22  -1.18  -1.48     7.799072    0      9      
iter: 130  04:37:25  -0.79  -1.23     7.994760    0      8      
iter: 131  04:37:27  -1.58  -1.41     8.038664    0      7      
iter: 132  04:37:29  -1.19  -1.48     7.800185    0      9      
iter: 133  04:37:31  -0.80  -1.23     7.991087    0      8      
iter: 134  04:37:34  -1.61  -1.40     8.038456    0      7      
iter: 135  04:37:36  -1.18  -1.48     7.798715    0      9      
iter: 136  04:37:38  -0.79  -1.23     7.993860    0      8      
iter: 137  04:37:41  -1.61  -1.40     8.037368    0      7      
iter: 138  04:37:43  -1.19  -1.48     7.799331    0      9      
iter: 139  04:37:45  -0.81  -1.23     7.992618    0      8      
iter: 140  04:37:47  -1.59  -1.40     8.038367    0      7      
iter: 141  04:37:50  -1.18  -1.48     7.798417    0      9      
iter: 142  04:37:52  -0.78  -1.23     7.993696    0      8      
iter: 143  04:37:54  -1.61  -1.41     8.036983    0      7      
iter: 144  04:37:57  -1.19  -1.48     7.798870    0      9      
iter: 145  04:37:59  -0.82  -1.23     7.993105    0      8      
iter: 146  04:38:01  -1.59  -1.40     8.038321    0      7      
iter: 147  04:38:03  -1.18  -1.48     7.798276    0      9      
iter: 148  04:38:06  -0.78  -1.23     7.993660    0      8      
iter: 149  04:38:08  -1.61  -1.41     8.036798    0      7      
iter: 150  04:38:10  -1.19  -1.48     7.798588    0      9      

Did not converge!

Here are some tips:

1) Make sure the geometry and spin-state is physically sound.
2) Use less aggressive density mixing.
3) Solve the eigenvalue problem more accurately at each scf-step.
4) Use a smoother distribution function for the occupation numbers.
5) Try adding more empty states.
6) Use enough k-points.
7) Don't let your structure optimization algorithm take too large steps.
8) Solve the Poisson equation more accurately.
9) Better initial guess for the wave functions.

See details here:

    https://wiki.fysik.dtu.dk/gpaw/documentation/convergence.html


Timing:                              incl.     excl.
-----------------------------------------------------------
Hamiltonian:                         2.782     0.000   0.0% |
 Atomic:                             0.207     0.001   0.0% |
  XC Correction:                     0.206     0.206   0.1% |
 Calculate atomic Hamiltonians:      0.004     0.004   0.0% |
 Communicate:                        0.000     0.000   0.0% |
 Hartree integrate/restrict:         0.013     0.013   0.0% |
 Initialize Hamiltonian:             0.000     0.000   0.0% |
 Poisson:                            1.929     1.929   0.6% |
 XC 3D grid:                         0.624     0.624   0.2% |
 vbar:                               0.004     0.004   0.0% |
LCAO initialization:                 0.722     0.620   0.2% |
 LCAO eigensolver:                   0.032     0.000   0.0% |
  Calculate projections:             0.000     0.000   0.0% |
  DenseAtomicCorrection:             0.000     0.000   0.0% |
  Distribute overlap matrix:         0.000     0.000   0.0% |
  Orbital Layouts:                   0.000     0.000   0.0% |
  Potential matrix:                  0.031     0.031   0.0% |
 LCAO to grid:                       0.066     0.066   0.0% |
 Set positions (LCAO WFS):           0.005     0.000   0.0% |
  Basic WFS set positions:           0.000     0.000   0.0% |
  Basis functions set positions:     0.000     0.000   0.0% |
  TCI: Calculate S, T, P:            0.004     0.004   0.0% |
SCF-cycle:                         332.205     0.056   0.0% |
 Davidson:                          88.400    17.022   5.1% |-|
  Apply hamiltonian:                 6.570     6.570   2.0% ||
  Subspace diag:                    24.794     0.015   0.0% |
   calc_h_matrix:                   12.157     5.589   1.7% ||
    Apply hamiltonian:               6.568     6.568   2.0% ||
   diagonalize:                      0.036     0.036   0.0% |
   rotate_psi:                      12.587    12.587   3.7% ||
  calc. matrices:                   27.388    20.822   6.2% |-|
   Apply hamiltonian:                6.566     6.566   1.9% ||
  diagonalize:                       0.117     0.117   0.0% |
  rotate_psi:                       12.507    12.507   3.7% ||
 Density:                            3.929     0.003   0.0% |
  Atomic density matrices:           0.102     0.102   0.0% |
  Mix:                               2.842     2.842   0.8% |
  Multipole moments:                 0.027     0.027   0.0% |
  Pseudo density:                    0.954     0.952   0.3% |
   Symmetrize density:               0.002     0.002   0.0% |
 Hamiltonian:                      239.758     0.016   0.0% |
  Atomic:                           29.615     0.135   0.0% |
   XC Correction:                   29.481    29.481   8.8% |---|
  Calculate atomic Hamiltonians:     0.643     0.643   0.2% |
  Communicate:                       0.001     0.001   0.0% |
  Hartree integrate/restrict:        1.509     1.509   0.4% |
  Poisson:                         119.493   119.493  35.5% |-------------|
  XC 3D grid:                       88.198    88.198  26.2% |---------|
  vbar:                              0.282     0.282   0.1% |
 Orthonormalize:                     0.062     0.000   0.0% |
  calc_s_matrix:                     0.020     0.020   0.0% |
  inverse-cholesky:                  0.000     0.000   0.0% |
  projections:                       0.014     0.014   0.0% |
  rotate_psi_s:                      0.027     0.027   0.0% |
Set symmetry:                        0.001     0.001   0.0% |
Other:                               1.099     1.099   0.3% |
-----------------------------------------------------------
Total:                                       336.809 100.0%

Memory usage: 200.81 MiB
Date: Mon Aug 20 04:38:12 2018
