
  ___ ___ ___ _ _ _  
 |   |   |_  | | | | 
 | | | | | . | | | | 
 |__ |  _|___|_____|  1.4.0
 |___|_|             

User:   ???@3fe09ff0504a
Date:   Mon Aug 20 04:27:06 2018
Arch:   x86_64
Pid:    25
Python: 3.7.0
gpaw:   /app/gpaw/software/venv/lib/python3.7/site-packages/gpaw
_gpaw:  /app/gpaw/software/venv/lib/python3.7/site-packages/
        _gpaw.cpython-37m-x86_64-linux-gnu.so
ase:    /app/gpaw/software/venv/lib/python3.7/site-packages/ase (version 3.16.2)
numpy:  /app/gpaw/software/venv/lib/python3.7/site-packages/numpy (version 1.15.0)
scipy:  /app/gpaw/software/venv/lib/python3.7/site-packages/scipy (version 1.1.0)
units:  Angstrom and eV
cores:  1

Input parameters:
  gpts: [56 40 40]
  maxiter: 150
  mixer: {backend: pulay,
          beta: None,
          method: separate,
          nmaxold: None,
          weight: None}
  xc: PBE

System changes: positions, numbers, cell, pbc, initial_charges, initial_magmoms 

Initialize ...

Hf-setup:
  name: Hafnium
  id: d03a45b6fa1dd7f07e443d1513edf499
  Z: 72
  valence: 12
  core: 60
  charge: 0.0
  file: /app/gpaw/datasets/Hf.PBE
  cutoffs: 1.30(comp), 2.36(filt), 4.02(core), lmax=2
  valence states:
                energy  radius
    5s(2.00)   -66.831   1.397
    6s(2.00)    -5.097   1.397
    5p(6.00)   -35.599   1.307
    6p(0.00)    -1.401   1.307
    5d(2.00)    -2.699   1.334
    *d          24.513   1.334

  Using partial waves for Hf as LCAO basis

N-setup:
  name: Nitrogen
  id: 45c8c9c739e7b131496b9fd2deb94bff
  Z: 7
  valence: 5
  core: 2
  charge: 0.0
  file: /app/gpaw/datasets/N.PBE
  cutoffs: 0.58(comp), 1.11(filt), 0.96(core), lmax=2
  valence states:
                energy  radius
    2s(2.00)   -18.583   0.603
    2p(3.00)    -7.089   0.529
    *s           8.629   0.603
    *p          20.123   0.529
    *d           0.000   0.577

  Using partial waves for N as LCAO basis

C-setup:
  name: Carbon
  id: 2f012631b351e3618121587a96c50fca
  Z: 6
  valence: 4
  core: 2
  charge: 0.0
  file: /app/gpaw/datasets/C.PBE
  cutoffs: 0.64(comp), 1.14(filt), 1.14(core), lmax=2
  valence states:
                energy  radius
    2s(2.00)   -13.751   0.635
    2p(2.00)    -5.285   0.635
    *s          13.461   0.635
    *p          21.927   0.635
    *d           0.000   0.635

  Using partial waves for C as LCAO basis

Reference energy: -412395.464894

Spin-paired calculation

Occupation numbers:
  Fermi-Dirac: width=0.0000 eV

Convergence criteria:
  Maximum total energy change: 0.0005 eV / electron
  Maximum integral of absolute density change: 0.0001 electrons
  Maximum integral of absolute eigenstate change: 4e-08 eV^2
  Maximum number of iterations: 150

Symmetries present (total): 1

  ( 1  0  0)
  ( 0  1  0)
  ( 0  0  1)

1 k-point (Gamma)
1 k-point in the irreducible part of the Brillouin zone
       k-points in crystal coordinates                weights
   0:     0.00000000    0.00000000    0.00000000          1/1

Wave functions: Uniform real-space grid
  Kinetic energy operator: 6*3+1=19 point O(h^6) finite-difference Laplacian
  ScaLapack parameters: grid=1x1, blocksize=None 

Eigensolver
   Davidson(niter=1, smin=None, normalize=True) 

Densities:
  Coarse grid: 56*40*40 grid
  Fine grid: 112*80*80 grid
  Total Charge: 0.000000 

Density mixing:
  Method: separate
  Backend: pulay
  Linear mixing parameter: 0.25
  Mixing with 3 old densities
  No damping of long wave oscillations 

Hamiltonian:
  XC and Coulomb potentials evaluated on a 112*80*80 grid
  Using the PBE Exchange-Correlation functional
  Interpolation: tri-quintic (5. degree polynomial)
  Poisson solver: Jacobi solver with 5 multi-grid levels
    Coarsest grid: 7 x 5 x 5 points
    Stencil: 6*3+1=19 point O(h^6) finite-difference Laplacian
    Max iterations: 1000
    Tolerance: 2.000000e-10 

Memory estimate:
  Process memory now: 41.59 MiB
  Calculator: 93.50 MiB
    Density: 36.21 MiB
      Arrays: 17.13 MiB
      Localized functions: 15.24 MiB
      Mixer: 3.83 MiB
    Hamiltonian: 25.06 MiB
      Arrays: 11.21 MiB
      XC: 0.00 MiB
      Poisson: 12.83 MiB
      vbar: 1.02 MiB
    Wavefunctions: 32.23 MiB
      Arrays psit_nG: 13.40 MiB
      Eigensolver: 16.63 MiB
      Projections: 0.01 MiB
      Projectors: 2.19 MiB

Total number of cores used: 1

Number of atoms: 3
Number of atomic orbitals: 21
Number of bands in calculation: 21
Bands to converge: occupied states only
Number of valence electrons: 21

... initialized

Initializing position-dependent things.

Density initialized from atomic densities
Creating initial wave functions:
  21 bands from LCAO basis set

     .--------------------.  
    /|                    |  
   / |                    |  
  /  |                    |  
 *   |                    |  
 |   |                    |  
 |   |    N  Hf  C        |  
 |   |                    |  
 |   .--------------------.  
 |  /                    /   
 | /                    /    
 |/                    /     
 *--------------------*      

Positions:
   0 Hf     4.200000    3.250000    3.250000    ( 0.0000,  0.0000,  0.0000)
   1 N      2.900000    3.250000    3.250000    ( 0.0000,  0.0000,  0.0000)
   2 C      5.600000    3.250000    3.250000    ( 0.0000,  0.0000,  0.0000)

Unit cell:
           periodic     x           y           z      points  spacing
  1. axis:    no     8.500000    0.000000    0.000000    56     0.1518
  2. axis:    no     0.000000    6.500000    0.000000    40     0.1625
  3. axis:    no     0.000000    0.000000    6.500000    40     0.1625

  Lengths:   8.500000   6.500000   6.500000
  Angles:   90.000000  90.000000  90.000000

Effective grid spacing dv^(1/3) = 0.1588

                     log10-error:    total        iterations:
           time      wfs    density  energy       fermi  poisson
iter:   1  04:27:11  +2.44   +inf    -1.815647    0      15     
iter:   2  04:27:12  +1.36   +inf    -2.985926    0             
iter:   3  04:27:13  +0.66   +inf    -3.176544    0             
iter:   4  04:27:15  +0.58  -0.62     3.621125    0      8      
iter:   5  04:27:18  +0.42  -0.91     4.822554    0      8      
iter:   6  04:27:20  +0.50  -1.17     4.817653    0      7      
iter:   7  04:27:22  +0.13  -1.30     4.739236    0      7      
iter:   8  04:27:24  +0.06  -1.35     4.663872    0      7      
iter:   9  04:27:27  -0.16  -1.44     4.619725    0      6      
iter:  10  04:27:29  -0.55  -1.46     4.626258    0      6      
iter:  11  04:27:31  -0.82  -1.46     4.619174    0      6      
iter:  12  04:27:33  -0.85  -1.49     4.490367    0      8      
iter:  13  04:27:36  -0.32  -1.29     4.524804    0      9      
iter:  14  04:27:38  -0.81  -1.38     4.550780    0      6      
iter:  15  04:27:40  -1.46  -1.42     4.571986    0      8      
iter:  16  04:27:42  -1.80  -1.45     4.599128    0      7      
iter:  17  04:27:45  -1.90  -1.52     4.552112    0      7      
iter:  18  04:27:47  -1.95  -1.44     4.572199    0      6      
iter:  19  04:27:49  -2.13  -1.48     4.598237    0      6      
iter:  20  04:27:51  -1.59  -1.55     4.499103    0      8      
iter:  21  04:27:54  -1.33  -1.35     4.576677    0      8      
iter:  22  04:27:56  -1.55  -1.49     4.546377    0      8      
iter:  23  04:27:59  -1.27  -1.43     4.586300    0      8      
iter:  24  04:28:01  -2.20  -1.53     4.581942    0      7      
iter:  25  04:28:03  -2.88  -1.51     4.597769    0      6      
iter:  26  04:28:05  -3.23  -1.55     4.596801    0      4      
iter:  27  04:28:07  -2.50  -1.55     4.552487    0      7      
iter:  28  04:28:10  -2.52  -1.45     4.583259    0      7      
iter:  29  04:28:12  -2.81  -1.51     4.592458    0      6      
iter:  30  04:28:14  -1.87  -1.54     4.492989    0      8      
iter:  31  04:28:17  -1.58  -1.35     4.574027    0      8      
iter:  32  04:28:19  -1.25  -1.49     4.384549    0      9      
iter:  33  04:28:21  -1.06  -1.25     4.592268    0      8      
iter:  34  04:28:23  -1.37  -1.52     4.588574    0      5      
iter:  35  04:28:26  -1.27  -1.52     4.373981    0      9      
iter:  36  04:28:28  -1.13  -1.24     4.544306    0      8      
iter:  37  04:28:31  -1.46  -1.43     4.577926    0      8      
iter:  38  04:28:33  -1.36  -1.51     4.591155    0      6      
iter:  39  04:28:35  -2.56  -1.54     4.585848    0      6      
iter:  40  04:28:37  -2.89  -1.52     4.597712    0      6      
iter:  41  04:28:39  -2.76  -1.56     4.595628    0      5      
iter:  42  04:28:41  -3.42  -1.55     4.588745    0      6      
iter:  43  04:28:43  -3.27  -1.53     4.596982    0      5      
iter:  44  04:28:45  -3.58  -1.55     4.588071    0      5      
iter:  45  04:28:48  -1.45  -1.53     4.367017    0      9      
iter:  46  04:28:50  -1.47  -1.24     4.542577    0      8      
iter:  47  04:28:53  -1.92  -1.42     4.597501    0      7      
iter:  48  04:28:55  -1.27  -1.55     4.374623    0      9      
iter:  49  04:28:58  -0.95  -1.25     4.564321    0      8      
iter:  50  04:29:00  -1.13  -1.46     4.380120    0      9      
iter:  51  04:29:03  -0.88  -1.26     4.584055    0      8      
iter:  52  04:29:05  -1.50  -1.50     4.584678    0      4      
iter:  53  04:29:07  -1.25  -1.51     4.360888    0      9      
iter:  54  04:29:10  -1.07  -1.24     4.545847    0      8      
iter:  55  04:29:12  -1.56  -1.43     4.580932    0      7      
iter:  56  04:29:14  -1.17  -1.50     4.360339    0      9      
iter:  57  04:29:17  -0.87  -1.24     4.557021    0      8      
iter:  58  04:29:19  -1.49  -1.45     4.586808    0      7      
iter:  59  04:29:21  -1.17  -1.51     4.357963    0      9      
iter:  60  04:29:23  -0.87  -1.24     4.551382    0      8      
iter:  61  04:29:25  -1.60  -1.44     4.575697    0      6      
iter:  62  04:29:28  -1.16  -1.49     4.357660    0      9      
iter:  63  04:29:30  -0.87  -1.24     4.555764    0      8      
iter:  64  04:29:32  -1.50  -1.45     4.584729    0      7      
iter:  65  04:29:35  -1.16  -1.51     4.359175    0      9      
iter:  66  04:29:37  -0.86  -1.24     4.548400    0      8      
iter:  67  04:29:39  -1.57  -1.43     4.572873    0      6      
iter:  68  04:29:41  -1.16  -1.48     4.362225    0      9      
iter:  69  04:29:44  -0.88  -1.24     4.552750    0      8      
iter:  70  04:29:46  -1.53  -1.44     4.586206    0      7      
iter:  71  04:29:48  -1.17  -1.51     4.363328    0      9      
iter:  72  04:29:50  -0.85  -1.25     4.537135    0      8      
iter:  73  04:29:53  -1.64  -1.42     4.574081    0      7      
iter:  74  04:29:55  -1.15  -1.48     4.365265    0      9      
iter:  75  04:29:57  -0.85  -1.25     4.538479    0      8      
iter:  76  04:29:59  -1.64  -1.42     4.584850    0      7      
iter:  77  04:30:02  -1.15  -1.51     4.362929    0      9      
iter:  78  04:30:04  -0.83  -1.25     4.533567    0      8      
iter:  79  04:30:06  -1.69  -1.41     4.572262    0      7      
iter:  80  04:30:09  -1.15  -1.48     4.365501    0      9      
iter:  81  04:30:11  -0.86  -1.25     4.537730    0      8      
iter:  82  04:30:13  -1.63  -1.42     4.583831    0      7      
iter:  83  04:30:16  -1.15  -1.51     4.362862    0      9      
iter:  84  04:30:18  -0.83  -1.25     4.531910    0      8      
iter:  85  04:30:21  -1.68  -1.41     4.572533    0      7      
iter:  86  04:30:23  -1.16  -1.48     4.366751    0      9      
iter:  87  04:30:25  -0.87  -1.25     4.534524    0      8      
iter:  88  04:30:28  -1.63  -1.41     4.583238    0      7      
iter:  89  04:30:30  -1.14  -1.50     4.363248    0      9      
iter:  90  04:30:33  -0.82  -1.25     4.530452    0      8      
iter:  91  04:30:35  -1.68  -1.41     4.572884    0      7      
iter:  92  04:30:37  -1.16  -1.48     4.367269    0      9      
iter:  93  04:30:40  -0.87  -1.25     4.533276    0      8      
iter:  94  04:30:42  -1.62  -1.41     4.582697    0      7      
iter:  95  04:30:45  -1.14  -1.50     4.363469    0      9      
iter:  96  04:30:47  -0.82  -1.25     4.529590    0      8      
iter:  97  04:30:49  -1.68  -1.40     4.573615    0      7      
iter:  98  04:30:52  -1.16  -1.48     4.368003    0      9      
iter:  99  04:30:54  -0.87  -1.25     4.531295    0      8      
iter: 100  04:30:56  -1.62  -1.41     4.582603    0      7      
iter: 101  04:30:59  -1.13  -1.50     4.363866    0      9      
iter: 102  04:31:01  -0.81  -1.25     4.528598    0      8      
iter: 103  04:31:04  -1.68  -1.40     4.573954    0      7      
iter: 104  04:31:06  -1.16  -1.48     4.368382    0      9      
iter: 105  04:31:09  -0.87  -1.25     4.530101    0      8      
iter: 106  04:31:11  -1.62  -1.40     4.582540    0      7      
iter: 107  04:31:13  -1.13  -1.50     4.364109    0      9      
iter: 108  04:31:16  -0.81  -1.25     4.528004    0      8      
iter: 109  04:31:18  -1.68  -1.40     4.574113    0      7      
iter: 110  04:31:20  -1.16  -1.48     4.368632    0      9      
iter: 111  04:31:23  -0.87  -1.25     4.529386    0      8      
iter: 112  04:31:25  -1.62  -1.40     4.582537    0      7      
iter: 113  04:31:28  -1.13  -1.50     4.364402    0      9      
iter: 114  04:31:30  -0.81  -1.25     4.527487    0      8      
iter: 115  04:31:33  -1.68  -1.40     4.574280    0      7      
iter: 116  04:31:35  -1.16  -1.49     4.368764    0      9      
iter: 117  04:31:38  -0.87  -1.25     4.528891    0      8      
iter: 118  04:31:40  -1.62  -1.40     4.582462    0      7      
iter: 119  04:31:42  -1.13  -1.50     4.364563    0      9      
iter: 120  04:31:45  -0.81  -1.25     4.527161    0      8      
iter: 121  04:31:47  -1.68  -1.40     4.574425    0      7      
iter: 122  04:31:50  -1.16  -1.49     4.368816    0      9      
iter: 123  04:31:52  -0.87  -1.25     4.528462    0      8      
iter: 124  04:31:54  -1.62  -1.40     4.582385    0      7      
iter: 125  04:31:57  -1.13  -1.50     4.364668    0      9      
iter: 126  04:31:59  -0.81  -1.25     4.526957    0      8      
iter: 127  04:32:02  -1.68  -1.40     4.574549    0      7      
iter: 128  04:32:04  -1.16  -1.49     4.368913    0      9      
iter: 129  04:32:06  -0.87  -1.25     4.528227    0      8      
iter: 130  04:32:09  -1.62  -1.40     4.582320    0      7      
iter: 131  04:32:11  -1.13  -1.50     4.364727    0      9      
iter: 132  04:32:14  -0.81  -1.25     4.526970    0      8      
iter: 133  04:32:16  -1.68  -1.40     4.574597    0      7      
iter: 134  04:32:18  -1.16  -1.49     4.368900    0      9      
iter: 135  04:32:21  -0.88  -1.25     4.528132    0      8      
iter: 136  04:32:23  -1.62  -1.40     4.582281    0      7      
iter: 137  04:32:26  -1.13  -1.50     4.364770    0      9      
iter: 138  04:32:28  -0.80  -1.25     4.526855    0      8      
iter: 139  04:32:30  -1.68  -1.40     4.574623    0      7      
iter: 140  04:32:33  -1.16  -1.49     4.368856    0      9      
iter: 141  04:32:35  -0.87  -1.25     4.528017    0      8      
iter: 142  04:32:38  -1.62  -1.40     4.582254    0      7      
iter: 143  04:32:40  -1.13  -1.50     4.364817    0      9      
iter: 144  04:32:43  -0.80  -1.25     4.526743    0      8      
iter: 145  04:32:45  -1.68  -1.40     4.574670    0      7      
iter: 146  04:32:48  -1.16  -1.49     4.368831    0      9      
iter: 147  04:32:50  -0.88  -1.25     4.527999    0      8      
iter: 148  04:32:53  -1.62  -1.40     4.582189    0      7      
iter: 149  04:32:56  -1.13  -1.50     4.364766    0      9      
iter: 150  04:32:58  -0.80  -1.25     4.526858    0      8      

Did not converge!

Here are some tips:

1) Make sure the geometry and spin-state is physically sound.
2) Use less aggressive density mixing.
3) Solve the eigenvalue problem more accurately at each scf-step.
4) Use a smoother distribution function for the occupation numbers.
5) Try adding more empty states.
6) Use enough k-points.
7) Don't let your structure optimization algorithm take too large steps.
8) Solve the Poisson equation more accurately.
9) Better initial guess for the wave functions.

See details here:

    https://wiki.fysik.dtu.dk/gpaw/documentation/convergence.html


Timing:                              incl.     excl.
-----------------------------------------------------------
Hamiltonian:                         2.632     0.000   0.0% |
 Atomic:                             0.202     0.001   0.0% |
  XC Correction:                     0.201     0.201   0.1% |
 Calculate atomic Hamiltonians:      0.004     0.004   0.0% |
 Communicate:                        0.000     0.000   0.0% |
 Hartree integrate/restrict:         0.011     0.011   0.0% |
 Initialize Hamiltonian:             0.000     0.000   0.0% |
 Poisson:                            1.808     1.808   0.5% |
 XC 3D grid:                         0.602     0.602   0.2% |
 vbar:                               0.004     0.004   0.0% |
LCAO initialization:                 0.676     0.575   0.2% |
 LCAO eigensolver:                   0.031     0.000   0.0% |
  Calculate projections:             0.000     0.000   0.0% |
  DenseAtomicCorrection:             0.000     0.000   0.0% |
  Distribute overlap matrix:         0.000     0.000   0.0% |
  Orbital Layouts:                   0.000     0.000   0.0% |
  Potential matrix:                  0.031     0.031   0.0% |
 LCAO to grid:                       0.065     0.065   0.0% |
 Set positions (LCAO WFS):           0.005     0.000   0.0% |
  Basic WFS set positions:           0.000     0.000   0.0% |
  Basis functions set positions:     0.000     0.000   0.0% |
  TCI: Calculate S, T, P:            0.004     0.004   0.0% |
SCF-cycle:                         349.098     0.055   0.0% |
 Davidson:                          89.382    17.461   4.9% |-|
  Apply hamiltonian:                 6.549     6.549   1.9% ||
  Subspace diag:                    25.166     0.015   0.0% |
   calc_h_matrix:                   12.353     5.790   1.6% ||
    Apply hamiltonian:               6.563     6.563   1.9% ||
   diagonalize:                      0.035     0.035   0.0% |
   rotate_psi:                      12.763    12.763   3.6% ||
  calc. matrices:                   27.660    21.107   6.0% |-|
   Apply hamiltonian:                6.552     6.552   1.9% ||
  diagonalize:                       0.118     0.118   0.0% |
  rotate_psi:                       12.429    12.429   3.5% ||
 Density:                            3.878     0.003   0.0% |
  Atomic density matrices:           0.100     0.100   0.0% |
  Mix:                               2.801     2.801   0.8% |
  Multipole moments:                 0.026     0.026   0.0% |
  Pseudo density:                    0.947     0.944   0.3% |
   Symmetrize density:               0.003     0.003   0.0% |
 Hamiltonian:                      255.722     0.016   0.0% |
  Atomic:                           29.592     0.134   0.0% |
   XC Correction:                   29.457    29.457   8.3% |--|
  Calculate atomic Hamiltonians:     0.650     0.650   0.2% |
  Communicate:                       0.001     0.001   0.0% |
  Hartree integrate/restrict:        1.541     1.541   0.4% |
  Poisson:                         135.377   135.377  38.3% |--------------|
  XC 3D grid:                       88.263    88.263  25.0% |---------|
  vbar:                              0.283     0.283   0.1% |
 Orthonormalize:                     0.060     0.000   0.0% |
  calc_s_matrix:                     0.020     0.020   0.0% |
  inverse-cholesky:                  0.000     0.000   0.0% |
  projections:                       0.014     0.014   0.0% |
  rotate_psi_s:                      0.026     0.026   0.0% |
Set symmetry:                        0.001     0.001   0.0% |
Other:                               1.063     1.063   0.3% |
-----------------------------------------------------------
Total:                                       353.469 100.0%

Memory usage: 200.92 MiB
Date: Mon Aug 20 04:33:00 2018
