
  ___ ___ ___ _ _ _  
 |   |   |_  | | | | 
 | | | | | . | | | | 
 |__ |  _|___|_____|  1.4.0
 |___|_|             

User:   ???@3fe09ff0504a
Date:   Mon Aug 20 04:23:27 2018
Arch:   x86_64
Pid:    18
Python: 3.7.0
gpaw:   /app/gpaw/software/venv/lib/python3.7/site-packages/gpaw
_gpaw:  /app/gpaw/software/venv/lib/python3.7/site-packages/
        _gpaw.cpython-37m-x86_64-linux-gnu.so
ase:    /app/gpaw/software/venv/lib/python3.7/site-packages/ase (version 3.16.2)
numpy:  /app/gpaw/software/venv/lib/python3.7/site-packages/numpy (version 1.15.0)
scipy:  /app/gpaw/software/venv/lib/python3.7/site-packages/scipy (version 1.1.0)
units:  Angstrom and eV
cores:  1

Input parameters:
  gpts: [56 40 40]
  maxiter: 150
  mixer: {backend: pulay,
          beta: None,
          method: separate,
          nmaxold: None,
          weight: None}
  xc: PBE

System changes: positions, numbers, cell, pbc, initial_charges, initial_magmoms 

Initialize ...

Hf-setup:
  name: Hafnium
  id: d03a45b6fa1dd7f07e443d1513edf499
  Z: 72
  valence: 12
  core: 60
  charge: 0.0
  file: /app/gpaw/datasets/Hf.PBE
  cutoffs: 1.30(comp), 2.36(filt), 4.02(core), lmax=2
  valence states:
                energy  radius
    5s(2.00)   -66.831   1.397
    6s(2.00)    -5.097   1.397
    5p(6.00)   -35.599   1.307
    6p(0.00)    -1.401   1.307
    5d(2.00)    -2.699   1.334
    *d          24.513   1.334

  Using partial waves for Hf as LCAO basis

N-setup:
  name: Nitrogen
  id: 45c8c9c739e7b131496b9fd2deb94bff
  Z: 7
  valence: 5
  core: 2
  charge: 0.0
  file: /app/gpaw/datasets/N.PBE
  cutoffs: 0.58(comp), 1.11(filt), 0.96(core), lmax=2
  valence states:
                energy  radius
    2s(2.00)   -18.583   0.603
    2p(3.00)    -7.089   0.529
    *s           8.629   0.603
    *p          20.123   0.529
    *d           0.000   0.577

  Using partial waves for N as LCAO basis

C-setup:
  name: Carbon
  id: 2f012631b351e3618121587a96c50fca
  Z: 6
  valence: 4
  core: 2
  charge: 0.0
  file: /app/gpaw/datasets/C.PBE
  cutoffs: 0.64(comp), 1.14(filt), 1.14(core), lmax=2
  valence states:
                energy  radius
    2s(2.00)   -13.751   0.635
    2p(2.00)    -5.285   0.635
    *s          13.461   0.635
    *p          21.927   0.635
    *d           0.000   0.635

  Using partial waves for C as LCAO basis

Reference energy: -412395.464894

Spin-paired calculation

Occupation numbers:
  Fermi-Dirac: width=0.0000 eV

Convergence criteria:
  Maximum total energy change: 0.0005 eV / electron
  Maximum integral of absolute density change: 0.0001 electrons
  Maximum integral of absolute eigenstate change: 4e-08 eV^2
  Maximum number of iterations: 150

Symmetries present (total): 1

  ( 1  0  0)
  ( 0  1  0)
  ( 0  0  1)

1 k-point (Gamma)
1 k-point in the irreducible part of the Brillouin zone
       k-points in crystal coordinates                weights
   0:     0.00000000    0.00000000    0.00000000          1/1

Wave functions: Uniform real-space grid
  Kinetic energy operator: 6*3+1=19 point O(h^6) finite-difference Laplacian
  ScaLapack parameters: grid=1x1, blocksize=None 

Eigensolver
   Davidson(niter=1, smin=None, normalize=True) 

Densities:
  Coarse grid: 56*40*40 grid
  Fine grid: 112*80*80 grid
  Total Charge: 0.000000 

Density mixing:
  Method: separate
  Backend: pulay
  Linear mixing parameter: 0.25
  Mixing with 3 old densities
  No damping of long wave oscillations 

Hamiltonian:
  XC and Coulomb potentials evaluated on a 112*80*80 grid
  Using the PBE Exchange-Correlation functional
  Interpolation: tri-quintic (5. degree polynomial)
  Poisson solver: Jacobi solver with 5 multi-grid levels
    Coarsest grid: 7 x 5 x 5 points
    Stencil: 6*3+1=19 point O(h^6) finite-difference Laplacian
    Max iterations: 1000
    Tolerance: 2.000000e-10 

Memory estimate:
  Process memory now: 41.58 MiB
  Calculator: 93.50 MiB
    Density: 36.21 MiB
      Arrays: 17.13 MiB
      Localized functions: 15.24 MiB
      Mixer: 3.83 MiB
    Hamiltonian: 25.06 MiB
      Arrays: 11.21 MiB
      XC: 0.00 MiB
      Poisson: 12.83 MiB
      vbar: 1.02 MiB
    Wavefunctions: 32.23 MiB
      Arrays psit_nG: 13.40 MiB
      Eigensolver: 16.63 MiB
      Projections: 0.01 MiB
      Projectors: 2.19 MiB

Total number of cores used: 1

Number of atoms: 3
Number of atomic orbitals: 21
Number of bands in calculation: 21
Bands to converge: occupied states only
Number of valence electrons: 21

... initialized

Initializing position-dependent things.

Density initialized from atomic densities
Creating initial wave functions:
  21 bands from LCAO basis set

     .--------------------.  
    /|                    |  
   / |                    |  
  /  |                    |  
 *   |                    |  
 |   |                    |  
 |   |    N  Hf  C        |  
 |   |                    |  
 |   .--------------------.  
 |  /                    /   
 | /                    /    
 |/                    /     
 *--------------------*      

Positions:
   0 Hf     4.100000    3.250000    3.250000    ( 0.0000,  0.0000,  0.0000)
   1 N      2.800000    3.250000    3.250000    ( 0.0000,  0.0000,  0.0000)
   2 C      5.700000    3.250000    3.250000    ( 0.0000,  0.0000,  0.0000)

Unit cell:
           periodic     x           y           z      points  spacing
  1. axis:    no     8.500000    0.000000    0.000000    56     0.1518
  2. axis:    no     0.000000    6.500000    0.000000    40     0.1625
  3. axis:    no     0.000000    0.000000    6.500000    40     0.1625

  Lengths:   8.500000   6.500000   6.500000
  Angles:   90.000000  90.000000  90.000000

Effective grid spacing dv^(1/3) = 0.1588

                     log10-error:    total        iterations:
           time      wfs    density  energy       fermi  poisson
iter:   1  04:23:32  +2.40   +inf    -6.180254    0      15     
iter:   2  04:23:32  +1.27   +inf    -7.107814    0             
iter:   3  04:23:33  +0.59   +inf    -7.272607    0             
iter:   4  04:23:35  +0.54  -0.64    -1.095996    0      8      
iter:   5  04:23:38  +0.43  -0.91    -0.054613    0      8      
iter:   6  04:23:40  +0.48  -1.15    -0.012860    0      7      
iter:   7  04:23:42  +0.16  -1.27    -0.063505    0      7      
iter:   8  04:23:44  +0.08  -1.34    -0.119570    0      7      
iter:   9  04:23:46  -0.19  -1.43    -0.145323    0      6      
iter:  10  04:23:48  -0.59  -1.43    -0.144334    0      6      
iter:  11  04:23:50  -0.78  -1.45    -0.150727    0      6      
iter:  12  04:23:52  -1.12  -1.47    -0.169618    0      6      
iter:  13  04:23:54  -1.56  -1.48    -0.161859    0      5      
iter:  14  04:23:56  -1.62  -1.50    -0.161195    0      4      
iter:  15  04:23:58  -1.15  -1.50    -0.553115    0      9      
iter:  16  04:24:01  -1.04  -1.16    -0.243721    0      8      
iter:  17  04:24:03  -1.39  -1.38    -0.403966    0      8      
iter:  18  04:24:05  -0.92  -1.25    -0.440283    0      9      
iter:  19  04:24:08  -0.77  -1.22    -0.226767    0      9      
iter:  20  04:24:10  -1.02  -1.43    -0.234806    0      8      
iter:  21  04:24:12  -1.84  -1.42    -0.181310    0      8      
iter:  22  04:24:14  -1.96  -1.52    -0.200701    0      7      
iter:  23  04:24:16  -2.56  -1.47    -0.165650    0      7      
iter:  24  04:24:18  -2.77  -1.55    -0.173247    0      5      
iter:  25  04:24:20  -2.63  -1.53    -0.208157    0      7      
iter:  26  04:24:23  -2.59  -1.46    -0.174548    0      7      
iter:  27  04:24:25  -3.01  -1.53    -0.200822    0      6      
iter:  28  04:24:27  -1.41  -1.47    -0.411012    0      9      
iter:  29  04:24:29  -1.38  -1.24    -0.224824    0      8      
iter:  30  04:24:31  -1.72  -1.42    -0.177469    0      7      
iter:  31  04:24:33  -1.47  -1.52    -0.182193    0      7      
iter:  32  04:24:35  -2.81  -1.51    -0.168375    0      6      
iter:  33  04:24:37  -2.88  -1.54    -0.166128    0      4      
iter:  34  04:24:40  -1.54  -1.55    -0.406629    0      9      
iter:  35  04:24:42  -1.50  -1.25    -0.226846    0      8      
iter:  36  04:24:44  -2.05  -1.42    -0.190736    0      7      
iter:  37  04:24:46  -1.25  -1.49    -0.415711    0      9      
iter:  38  04:24:49  -0.92  -1.24    -0.206177    0      8      
iter:  39  04:24:51  -1.48  -1.45    -0.179921    0      6      
iter:  40  04:24:53  -1.21  -1.50    -0.425846    0      9      
iter:  41  04:24:55  -0.88  -1.24    -0.215233    0      8      
iter:  42  04:24:57  -1.49  -1.44    -0.189257    0      6      
iter:  43  04:25:00  -1.18  -1.48    -0.426246    0      9      
iter:  44  04:25:02  -0.84  -1.24    -0.211803    0      8      
iter:  45  04:25:04  -1.50  -1.44    -0.189258    0      6      
iter:  46  04:25:06  -1.21  -1.48    -0.424621    0      9      
iter:  47  04:25:09  -0.91  -1.24    -0.214680    0      8      
iter:  48  04:25:11  -1.49  -1.44    -0.190993    0      6      
iter:  49  04:25:13  -1.20  -1.48    -0.420099    0      9      
iter:  50  04:25:15  -0.88  -1.24    -0.217860    0      8      
iter:  51  04:25:17  -1.53  -1.43    -0.186013    0      6      
iter:  52  04:25:20  -1.21  -1.49    -0.416128    0      9      
iter:  53  04:25:23  -0.88  -1.24    -0.233243    0      8      
iter:  54  04:25:25  -1.58  -1.41    -0.185485    0      7      
iter:  55  04:25:28  -1.17  -1.49    -0.414320    0      9      
iter:  56  04:25:30  -0.80  -1.24    -0.237539    0      8      
iter:  57  04:25:32  -1.66  -1.40    -0.186106    0      7      
iter:  58  04:25:34  -1.18  -1.49    -0.414005    0      9      
iter:  59  04:25:37  -0.81  -1.24    -0.241007    0      8      
iter:  60  04:25:39  -1.65  -1.40    -0.187163    0      7      
iter:  61  04:25:41  -1.17  -1.49    -0.413017    0      9      
iter:  62  04:25:43  -0.79  -1.24    -0.239138    0      8      
iter:  63  04:25:46  -1.66  -1.40    -0.186652    0      7      
iter:  64  04:25:48  -1.18  -1.49    -0.413081    0      9      
iter:  65  04:25:50  -0.83  -1.24    -0.241884    0      8      
iter:  66  04:25:52  -1.66  -1.40    -0.187636    0      7      
iter:  67  04:25:55  -1.17  -1.49    -0.412430    0      9      
iter:  68  04:25:57  -0.81  -1.25    -0.240549    0      8      
iter:  69  04:25:59  -1.67  -1.40    -0.186593    0      7      
iter:  70  04:26:02  -1.18  -1.49    -0.412328    0      9      
iter:  71  04:26:04  -0.83  -1.25    -0.243074    0      8      
iter:  72  04:26:06  -1.67  -1.40    -0.187833    0      7      
iter:  73  04:26:08  -1.17  -1.49    -0.411901    0      9      
iter:  74  04:26:11  -0.81  -1.25    -0.241854    0      8      
iter:  75  04:26:13  -1.67  -1.40    -0.186514    0      7      
iter:  76  04:26:15  -1.18  -1.49    -0.411914    0      9      
iter:  77  04:26:17  -0.83  -1.25    -0.243755    0      8      
iter:  78  04:26:20  -1.67  -1.40    -0.187755    0      7      
iter:  79  04:26:22  -1.17  -1.49    -0.411516    0      9      
iter:  80  04:26:24  -0.81  -1.25    -0.242447    0      8      
iter:  81  04:26:26  -1.67  -1.40    -0.186431    0      7      
iter:  82  04:26:29  -1.17  -1.49    -0.411740    0      9      
iter:  83  04:26:31  -0.82  -1.25    -0.243897    0      8      
iter:  84  04:26:34  -1.68  -1.40    -0.187700    0      7      
iter:  85  04:26:36  -1.17  -1.49    -0.411388    0      9      
iter:  86  04:26:38  -0.82  -1.25    -0.242714    0      8      
iter:  87  04:26:40  -1.67  -1.40    -0.186369    0      7      
iter:  88  04:26:43  -1.17  -1.49    -0.411625    0      9      
iter:  89  04:26:45  -0.82  -1.25    -0.244188    0      8      
iter:  90  04:26:47  -1.68  -1.39    -0.187667    0      7      
iter:  91  04:26:49  -1.18  -1.49    -0.411160    0      9      
iter:  92  04:26:52  -0.83  -1.25    -0.243601    0      8      
iter:  93  04:26:54  -1.67  -1.40    -0.186231    0      7      
iter:  94  04:26:56  -1.17  -1.49    -0.411212    0      9      
iter:  95  04:26:59  -0.82  -1.25    -0.244931    0      8      
iter:  96  04:27:01  -1.69  -1.39    -0.187806    0      7      
iter:  97  04:27:03  -1.18  -1.49    -0.410779    0      9      
iter:  98  04:27:05  -0.83  -1.25    -0.243850    0      8      
iter:  99  04:27:08  -1.67  -1.39    -0.186229    0      7      
iter: 100  04:27:10  -1.17  -1.49    -0.410969    0      9      
iter: 101  04:27:12  -0.81  -1.25    -0.245047    0      8      
iter: 102  04:27:15  -1.69  -1.39    -0.187910    0      7      
iter: 103  04:27:17  -1.18  -1.49    -0.410628    0      9      
iter: 104  04:27:20  -0.83  -1.25    -0.244019    0      8      
iter: 105  04:27:22  -1.66  -1.39    -0.186245    0      7      
iter: 106  04:27:24  -1.16  -1.49    -0.410893    0      9      
iter: 107  04:27:27  -0.81  -1.25    -0.245289    0      8      
iter: 108  04:27:29  -1.69  -1.39    -0.187897    0      7      
iter: 109  04:27:32  -1.18  -1.49    -0.410623    0      9      
iter: 110  04:27:34  -0.84  -1.25    -0.244208    0      8      
iter: 111  04:27:36  -1.66  -1.39    -0.186231    0      7      
iter: 112  04:27:39  -1.16  -1.49    -0.410884    0      9      
iter: 113  04:27:41  -0.81  -1.25    -0.245522    0      8      
iter: 114  04:27:43  -1.69  -1.39    -0.187885    0      7      
iter: 115  04:27:46  -1.18  -1.49    -0.410605    0      9      
iter: 116  04:27:48  -0.84  -1.24    -0.244331    0      8      
iter: 117  04:27:50  -1.66  -1.39    -0.186154    0      7      
iter: 118  04:27:53  -1.16  -1.49    -0.410921    0      9      
iter: 119  04:27:55  -0.80  -1.24    -0.245604    0      8      
iter: 120  04:27:58  -1.69  -1.39    -0.187958    0      7      
iter: 121  04:28:00  -1.18  -1.49    -0.410620    0      9      
iter: 122  04:28:03  -0.84  -1.24    -0.244417    0      8      
iter: 123  04:28:05  -1.66  -1.39    -0.186041    0      7      
iter: 124  04:28:07  -1.16  -1.49    -0.410876    0      9      
iter: 125  04:28:10  -0.80  -1.24    -0.245805    0      8      
iter: 126  04:28:12  -1.69  -1.39    -0.188032    0      7      
iter: 127  04:28:15  -1.18  -1.49    -0.410716    0      9      
iter: 128  04:28:17  -0.84  -1.24    -0.244326    0      8      
iter: 129  04:28:19  -1.66  -1.39    -0.186040    0      7      
iter: 130  04:28:22  -1.16  -1.49    -0.410953    0      9      
iter: 131  04:28:24  -0.80  -1.24    -0.245852    0      8      
iter: 132  04:28:26  -1.69  -1.39    -0.188030    0      7      
iter: 133  04:28:29  -1.18  -1.49    -0.410695    0      9      
iter: 134  04:28:31  -0.84  -1.24    -0.244358    0      8      
iter: 135  04:28:33  -1.66  -1.39    -0.186000    0      7      
iter: 136  04:28:36  -1.16  -1.49    -0.410980    0      9      
iter: 137  04:28:38  -0.80  -1.24    -0.245872    0      8      
iter: 138  04:28:41  -1.69  -1.39    -0.188087    0      7      
iter: 139  04:28:43  -1.18  -1.49    -0.410820    0      9      
iter: 140  04:28:46  -0.84  -1.24    -0.244223    0      8      
iter: 141  04:28:48  -1.66  -1.39    -0.186030    0      7      
iter: 142  04:28:50  -1.16  -1.49    -0.411124    0      9      
iter: 143  04:28:53  -0.80  -1.24    -0.245770    0      8      
iter: 144  04:28:55  -1.69  -1.39    -0.188131    0      7      
iter: 145  04:28:58  -1.18  -1.49    -0.410901    0      9      
iter: 146  04:29:00  -0.84  -1.24    -0.244198    0      8      
iter: 147  04:29:02  -1.66  -1.39    -0.186017    0      7      
iter: 148  04:29:05  -1.16  -1.49    -0.411115    0      9      
iter: 149  04:29:07  -0.80  -1.24    -0.245878    0      8      
iter: 150  04:29:10  -1.69  -1.39    -0.188088    0      7      

Did not converge!

Here are some tips:

1) Make sure the geometry and spin-state is physically sound.
2) Use less aggressive density mixing.
3) Solve the eigenvalue problem more accurately at each scf-step.
4) Use a smoother distribution function for the occupation numbers.
5) Try adding more empty states.
6) Use enough k-points.
7) Don't let your structure optimization algorithm take too large steps.
8) Solve the Poisson equation more accurately.
9) Better initial guess for the wave functions.

See details here:

    https://wiki.fysik.dtu.dk/gpaw/documentation/convergence.html


Timing:                              incl.     excl.
-----------------------------------------------------------
Hamiltonian:                         2.501     0.000   0.0% |
 Atomic:                             0.194     0.001   0.0% |
  XC Correction:                     0.193     0.193   0.1% |
 Calculate atomic Hamiltonians:      0.004     0.004   0.0% |
 Communicate:                        0.000     0.000   0.0% |
 Hartree integrate/restrict:         0.009     0.009   0.0% |
 Initialize Hamiltonian:             0.000     0.000   0.0% |
 Poisson:                            1.706     1.706   0.5% |
 XC 3D grid:                         0.584     0.584   0.2% |
 vbar:                               0.003     0.003   0.0% |
LCAO initialization:                 0.672     0.575   0.2% |
 LCAO eigensolver:                   0.031     0.000   0.0% |
  Calculate projections:             0.000     0.000   0.0% |
  DenseAtomicCorrection:             0.000     0.000   0.0% |
  Distribute overlap matrix:         0.000     0.000   0.0% |
  Orbital Layouts:                   0.000     0.000   0.0% |
  Potential matrix:                  0.030     0.030   0.0% |
 LCAO to grid:                       0.062     0.062   0.0% |
 Set positions (LCAO WFS):           0.004     0.000   0.0% |
  Basic WFS set positions:           0.000     0.000   0.0% |
  Basis functions set positions:     0.000     0.000   0.0% |
  TCI: Calculate S, T, P:            0.004     0.004   0.0% |
SCF-cycle:                         340.243     0.054   0.0% |
 Davidson:                          83.506    16.558   4.8% |-|
  Apply hamiltonian:                 6.410     6.410   1.9% ||
  Subspace diag:                    23.266     0.015   0.0% |
   calc_h_matrix:                   11.599     5.166   1.5% ||
    Apply hamiltonian:               6.433     6.433   1.9% ||
   diagonalize:                      0.035     0.035   0.0% |
   rotate_psi:                      11.617    11.617   3.4% ||
  calc. matrices:                   25.694    19.287   5.6% |-|
   Apply hamiltonian:                6.407     6.407   1.9% ||
  diagonalize:                       0.116     0.116   0.0% |
  rotate_psi:                       11.462    11.462   3.3% ||
 Density:                            3.707     0.003   0.0% |
  Atomic density matrices:           0.099     0.099   0.0% |
  Mix:                               2.676     2.676   0.8% |
  Multipole moments:                 0.026     0.026   0.0% |
  Pseudo density:                    0.903     0.900   0.3% |
   Symmetrize density:               0.003     0.003   0.0% |
 Hamiltonian:                      252.922     0.016   0.0% |
  Atomic:                           29.166     0.129   0.0% |
   XC Correction:                   29.037    29.037   8.4% |--|
  Calculate atomic Hamiltonians:     0.636     0.636   0.2% |
  Communicate:                       0.001     0.001   0.0% |
  Hartree integrate/restrict:        1.397     1.397   0.4% |
  Poisson:                         133.181   133.181  38.7% |--------------|
  XC 3D grid:                       88.276    88.276  25.6% |---------|
  vbar:                              0.249     0.249   0.1% |
 Orthonormalize:                     0.054     0.000   0.0% |
  calc_s_matrix:                     0.017     0.017   0.0% |
  inverse-cholesky:                  0.000     0.000   0.0% |
  projections:                       0.014     0.014   0.0% |
  rotate_psi_s:                      0.022     0.022   0.0% |
Set symmetry:                        0.001     0.001   0.0% |
Other:                               1.027     1.027   0.3% |
-----------------------------------------------------------
Total:                                       344.444 100.0%

Memory usage: 200.68 MiB
Date: Mon Aug 20 04:29:12 2018
