
  ___ ___ ___ _ _ _  
 |   |   |_  | | | | 
 | | | | | . | | | | 
 |__ |  _|___|_____|  1.4.0
 |___|_|             

User:   ???@3fe09ff0504a
Date:   Mon Aug 20 04:30:07 2018
Arch:   x86_64
Pid:    33
Python: 3.7.0
gpaw:   /app/gpaw/software/venv/lib/python3.7/site-packages/gpaw
_gpaw:  /app/gpaw/software/venv/lib/python3.7/site-packages/
        _gpaw.cpython-37m-x86_64-linux-gnu.so
ase:    /app/gpaw/software/venv/lib/python3.7/site-packages/ase (version 3.16.2)
numpy:  /app/gpaw/software/venv/lib/python3.7/site-packages/numpy (version 1.15.0)
scipy:  /app/gpaw/software/venv/lib/python3.7/site-packages/scipy (version 1.1.0)
units:  Angstrom and eV
cores:  1

Input parameters:
  gpts: [56 40 40]
  maxiter: 150
  mixer: {backend: pulay,
          beta: None,
          method: separate,
          nmaxold: None,
          weight: None}
  xc: PBE

System changes: positions, numbers, cell, pbc, initial_charges, initial_magmoms 

Initialize ...

Hf-setup:
  name: Hafnium
  id: d03a45b6fa1dd7f07e443d1513edf499
  Z: 72
  valence: 12
  core: 60
  charge: 0.0
  file: /app/gpaw/datasets/Hf.PBE
  cutoffs: 1.30(comp), 2.36(filt), 4.02(core), lmax=2
  valence states:
                energy  radius
    5s(2.00)   -66.831   1.397
    6s(2.00)    -5.097   1.397
    5p(6.00)   -35.599   1.307
    6p(0.00)    -1.401   1.307
    5d(2.00)    -2.699   1.334
    *d          24.513   1.334

  Using partial waves for Hf as LCAO basis

N-setup:
  name: Nitrogen
  id: 45c8c9c739e7b131496b9fd2deb94bff
  Z: 7
  valence: 5
  core: 2
  charge: 0.0
  file: /app/gpaw/datasets/N.PBE
  cutoffs: 0.58(comp), 1.11(filt), 0.96(core), lmax=2
  valence states:
                energy  radius
    2s(2.00)   -18.583   0.603
    2p(3.00)    -7.089   0.529
    *s           8.629   0.603
    *p          20.123   0.529
    *d           0.000   0.577

  Using partial waves for N as LCAO basis

C-setup:
  name: Carbon
  id: 2f012631b351e3618121587a96c50fca
  Z: 6
  valence: 4
  core: 2
  charge: 0.0
  file: /app/gpaw/datasets/C.PBE
  cutoffs: 0.64(comp), 1.14(filt), 1.14(core), lmax=2
  valence states:
                energy  radius
    2s(2.00)   -13.751   0.635
    2p(2.00)    -5.285   0.635
    *s          13.461   0.635
    *p          21.927   0.635
    *d           0.000   0.635

  Using partial waves for C as LCAO basis

Reference energy: -412395.464894

Spin-paired calculation

Occupation numbers:
  Fermi-Dirac: width=0.0000 eV

Convergence criteria:
  Maximum total energy change: 0.0005 eV / electron
  Maximum integral of absolute density change: 0.0001 electrons
  Maximum integral of absolute eigenstate change: 4e-08 eV^2
  Maximum number of iterations: 150

Symmetries present (total): 1

  ( 1  0  0)
  ( 0  1  0)
  ( 0  0  1)

1 k-point (Gamma)
1 k-point in the irreducible part of the Brillouin zone
       k-points in crystal coordinates                weights
   0:     0.00000000    0.00000000    0.00000000          1/1

Wave functions: Uniform real-space grid
  Kinetic energy operator: 6*3+1=19 point O(h^6) finite-difference Laplacian
  ScaLapack parameters: grid=1x1, blocksize=None 

Eigensolver
   Davidson(niter=1, smin=None, normalize=True) 

Densities:
  Coarse grid: 56*40*40 grid
  Fine grid: 112*80*80 grid
  Total Charge: 0.000000 

Density mixing:
  Method: separate
  Backend: pulay
  Linear mixing parameter: 0.25
  Mixing with 3 old densities
  No damping of long wave oscillations 

Hamiltonian:
  XC and Coulomb potentials evaluated on a 112*80*80 grid
  Using the PBE Exchange-Correlation functional
  Interpolation: tri-quintic (5. degree polynomial)
  Poisson solver: Jacobi solver with 5 multi-grid levels
    Coarsest grid: 7 x 5 x 5 points
    Stencil: 6*3+1=19 point O(h^6) finite-difference Laplacian
    Max iterations: 1000
    Tolerance: 2.000000e-10 

Memory estimate:
  Process memory now: 41.70 MiB
  Calculator: 93.50 MiB
    Density: 36.21 MiB
      Arrays: 17.13 MiB
      Localized functions: 15.24 MiB
      Mixer: 3.83 MiB
    Hamiltonian: 25.06 MiB
      Arrays: 11.21 MiB
      XC: 0.00 MiB
      Poisson: 12.83 MiB
      vbar: 1.02 MiB
    Wavefunctions: 32.23 MiB
      Arrays psit_nG: 13.40 MiB
      Eigensolver: 16.63 MiB
      Projections: 0.01 MiB
      Projectors: 2.19 MiB

Total number of cores used: 1

Number of atoms: 3
Number of atomic orbitals: 21
Number of bands in calculation: 21
Bands to converge: occupied states only
Number of valence electrons: 21

... initialized

Initializing position-dependent things.

Density initialized from atomic densities
Creating initial wave functions:
  21 bands from LCAO basis set

     .--------------------.  
    /|                    |  
   / |                    |  
  /  |                    |  
 *   |                    |  
 |   |                    |  
 |   |    N  Hf  C        |  
 |   |                    |  
 |   .--------------------.  
 |  /                    /   
 | /                    /    
 |/                    /     
 *--------------------*      

Positions:
   0 Hf     4.075000    3.250000    3.250000    ( 0.0000,  0.0000,  0.0000)
   1 N      2.925000    3.250000    3.250000    ( 0.0000,  0.0000,  0.0000)
   2 C      5.575000    3.250000    3.250000    ( 0.0000,  0.0000,  0.0000)

Unit cell:
           periodic     x           y           z      points  spacing
  1. axis:    no     8.500000    0.000000    0.000000    56     0.1518
  2. axis:    no     0.000000    6.500000    0.000000    40     0.1625
  3. axis:    no     0.000000    0.000000    6.500000    40     0.1625

  Lengths:   8.500000   6.500000   6.500000
  Angles:   90.000000  90.000000  90.000000

Effective grid spacing dv^(1/3) = 0.1588

                     log10-error:    total        iterations:
           time      wfs    density  energy       fermi  poisson
iter:   1  04:30:12  +2.47   +inf    12.148159    0      15     
iter:   2  04:30:12  +1.39   +inf    10.866157    0             
iter:   3  04:30:13  +0.69   +inf    10.661074    0             
iter:   4  04:30:15  +0.61  -0.61    17.168588    0      9      
iter:   5  04:30:18  +0.50  -0.90    18.122381    0      8      
iter:   6  04:30:20  +0.59  -1.16    18.015356    0      7      
iter:   7  04:30:22  +0.19  -1.30    17.876408    0      7      
iter:   8  04:30:25  +0.11  -1.35    17.764991    0      7      
iter:   9  04:30:27  -0.23  -1.44    17.731558    0      6      
iter:  10  04:30:29  -0.59  -1.42    17.722087    0      6      
iter:  11  04:30:31  -0.81  -1.45    17.709214    0      6      
iter:  12  04:30:33  -1.03  -1.47    17.622929    0      7      
iter:  13  04:30:36  -1.29  -1.45    17.663445    0      7      
iter:  14  04:30:38  -1.63  -1.49    17.647419    0      6      
iter:  15  04:30:40  -1.38  -1.47    17.597121    0      8      
iter:  16  04:30:42  -1.29  -1.31    17.652371    0      7      
iter:  17  04:30:45  -1.67  -1.45    17.629175    0      7      
iter:  18  04:30:47  -1.53  -1.46    17.643856    0      6      
iter:  19  04:30:49  -2.51  -1.49    17.670716    0      6      
iter:  20  04:30:51  -2.62  -1.54    17.661558    0      6      
iter:  21  04:30:53  -3.11  -1.52    17.655756    0      5      
iter:  22  04:30:55  -3.19  -1.51    17.666414    0      5      
iter:  23  04:30:58  -1.52  -1.53    17.448645    0      8      
iter:  24  04:31:00  -1.46  -1.25    17.621773    0      8      
iter:  25  04:31:03  -1.79  -1.44    17.638907    0      8      
iter:  26  04:31:05  -1.50  -1.48    17.658405    0      6      
iter:  27  04:31:07  -2.62  -1.52    17.661101    0      6      
iter:  28  04:31:09  -2.75  -1.53    17.666693    0      6      
iter:  29  04:31:11  -3.52  -1.54    17.669574    0      5      
iter:  30  04:31:13  -4.17  -1.55    17.668556    0      4      
iter:  31  04:31:15  -4.27  -1.54    17.669122    0      4      
iter:  32  04:31:17  -4.25  -1.55    17.670032    0      4      
iter:  33  04:31:19  -4.95  -1.55    17.668856    0      4      
iter:  34  04:31:21  -5.02  -1.55    17.668942    0      3      
iter:  35  04:31:23  -1.80  -1.55    17.538577    0      8      
iter:  36  04:31:25  -1.81  -1.31    17.626837    0      7      
iter:  37  04:31:28  -2.35  -1.45    17.668288    0      7      
iter:  38  04:31:30  -1.51  -1.55    17.467952    0      8      
iter:  39  04:31:33  -1.37  -1.25    17.633095    0      8      
iter:  40  04:31:35  -1.25  -1.46    17.489927    0      8      
iter:  41  04:31:38  -0.97  -1.28    17.660140    0      8      
iter:  42  04:31:40  -1.57  -1.51    17.656179    0      5      
iter:  43  04:31:42  -1.29  -1.51    17.430069    0      8      
iter:  44  04:31:45  -1.13  -1.23    17.613046    0      8      
iter:  45  04:31:47  -1.48  -1.42    17.668647    0      7      
iter:  46  04:31:49  -1.21  -1.55    17.489773    0      8      
iter:  47  04:31:52  -0.84  -1.29    17.643184    0      8      
iter:  48  04:31:54  -1.18  -1.48    17.426315    0      9      
iter:  49  04:31:57  -0.94  -1.24    17.663845    0      8      
iter:  50  04:31:59  -1.30  -1.52    17.636409    0      6      
iter:  51  04:32:01  -1.27  -1.47    17.420139    0      9      
iter:  52  04:32:04  -1.24  -1.23    17.617868    0      8      
iter:  53  04:32:06  -1.64  -1.43    17.670136    0      7      
iter:  54  04:32:09  -1.19  -1.55    17.427045    0      8      
iter:  55  04:32:11  -0.79  -1.24    17.630246    0      8      
iter:  56  04:32:14  -1.08  -1.45    17.420465    0      9      
iter:  57  04:32:16  -0.79  -1.24    17.652733    0      8      
iter:  58  04:32:18  -1.43  -1.49    17.662186    0      5      
iter:  59  04:32:20  -1.24  -1.52    17.410553    0      8      
iter:  60  04:32:23  -0.95  -1.23    17.611754    0      8      
iter:  61  04:32:25  -1.48  -1.42    17.664647    0      7      
iter:  62  04:32:27  -1.13  -1.53    17.408242    0      8      
iter:  63  04:32:30  -0.73  -1.23    17.628846    0      8      
iter:  64  04:32:32  -1.29  -1.45    17.556613    0      8      
iter:  65  04:32:35  -1.03  -1.36    17.652318    0      7      
iter:  66  04:32:37  -2.20  -1.50    17.669796    0      6      
iter:  67  04:32:39  -1.39  -1.55    17.406794    0      8      
iter:  68  04:32:42  -1.19  -1.23    17.614027    0      8      
iter:  69  04:32:45  -1.00  -1.42    17.393111    0      9      
iter:  70  04:32:48  -0.66  -1.23    17.641464    0      8      
iter:  71  04:32:50  -1.46  -1.47    17.667778    0      6      
iter:  72  04:32:53  -1.17  -1.53    17.418021    0      8      
iter:  73  04:32:55  -0.81  -1.24    17.608002    0      8      
iter:  74  04:32:58  -1.73  -1.42    17.645688    0      6      
iter:  75  04:33:00  -1.18  -1.48    17.412369    0      9      
iter:  76  04:33:03  -0.84  -1.24    17.623277    0      8      
iter:  77  04:33:05  -1.53  -1.44    17.659296    0      6      
iter:  78  04:33:07  -1.16  -1.51    17.413140    0      8      
iter:  79  04:33:10  -0.80  -1.24    17.612306    0      8      
iter:  80  04:33:12  -1.65  -1.42    17.640632    0      6      
iter:  81  04:33:14  -1.17  -1.47    17.411293    0      9      
iter:  82  04:33:17  -0.87  -1.24    17.619611    0      8      
iter:  83  04:33:19  -1.51  -1.43    17.658502    0      7      
iter:  84  04:33:21  -1.15  -1.51    17.412805    0      8      
iter:  85  04:33:24  -0.79  -1.24    17.610264    0      8      
iter:  86  04:33:26  -1.66  -1.42    17.636434    0      6      
iter:  87  04:33:29  -1.17  -1.47    17.410384    0      9      
iter:  88  04:33:31  -0.90  -1.24    17.619796    0      8      
iter:  89  04:33:33  -1.47  -1.43    17.658505    0      7      
iter:  90  04:33:36  -1.15  -1.51    17.412852    0      8      
iter:  91  04:33:38  -0.78  -1.24    17.607984    0      8      
iter:  92  04:33:40  -1.68  -1.42    17.635891    0      6      
iter:  93  04:33:43  -1.17  -1.46    17.409910    0      9      
iter:  94  04:33:45  -0.90  -1.24    17.618593    0      8      
iter:  95  04:33:48  -1.46  -1.43    17.657390    0      7      
iter:  96  04:33:50  -1.14  -1.51    17.412550    0      8      
iter:  97  04:33:52  -0.77  -1.24    17.607771    0      8      
iter:  98  04:33:55  -1.67  -1.42    17.636629    0      6      
iter:  99  04:33:57  -1.17  -1.47    17.409776    0      9      
iter: 100  04:33:59  -0.89  -1.24    17.617947    0      8      
iter: 101  04:34:02  -1.47  -1.43    17.655823    0      7      
iter: 102  04:34:04  -1.14  -1.50    17.412163    0      8      
iter: 103  04:34:07  -0.78  -1.24    17.608340    0      8      
iter: 104  04:34:09  -1.65  -1.42    17.638434    0      6      
iter: 105  04:34:12  -1.17  -1.47    17.410015    0      9      
iter: 106  04:34:14  -0.88  -1.24    17.616859    0      8      
iter: 107  04:34:16  -1.48  -1.43    17.654425    0      7      
iter: 108  04:34:19  -1.14  -1.50    17.411619    0      8      
iter: 109  04:34:21  -0.78  -1.24    17.609115    0      8      
iter: 110  04:34:23  -1.63  -1.42    17.639756    0      6      
iter: 111  04:34:26  -1.17  -1.47    17.410009    0      9      
iter: 112  04:34:28  -0.87  -1.24    17.616376    0      8      
iter: 113  04:34:31  -1.48  -1.43    17.653301    0      6      
iter: 114  04:34:33  -1.14  -1.50    17.411194    0      8      
iter: 115  04:34:35  -0.78  -1.24    17.609868    0      8      
iter: 116  04:34:38  -1.62  -1.42    17.641067    0      6      
iter: 117  04:34:40  -1.17  -1.47    17.409947    0      9      
iter: 118  04:34:42  -0.87  -1.24    17.616026    0      8      
iter: 119  04:34:45  -1.49  -1.43    17.652392    0      6      
iter: 120  04:34:47  -1.14  -1.50    17.410853    0      9      
iter: 121  04:34:50  -0.78  -1.24    17.610601    0      8      
iter: 122  04:34:52  -1.61  -1.42    17.642040    0      6      
iter: 123  04:34:55  -1.16  -1.48    17.409872    0      9      
iter: 124  04:34:57  -0.86  -1.24    17.615785    0      8      
iter: 125  04:35:00  -1.50  -1.43    17.651690    0      6      
iter: 126  04:35:02  -1.14  -1.49    17.410494    0      9      
iter: 127  04:35:04  -0.78  -1.24    17.611244    0      8      
iter: 128  04:35:07  -1.60  -1.42    17.642820    0      6      
iter: 129  04:35:09  -1.16  -1.48    17.409750    0      9      
iter: 130  04:35:12  -0.85  -1.24    17.615755    0      8      
iter: 131  04:35:14  -1.50  -1.43    17.651164    0      6      
iter: 132  04:35:16  -1.14  -1.49    17.410190    0      9      
iter: 133  04:35:19  -0.78  -1.24    17.611758    0      8      
iter: 134  04:35:21  -1.59  -1.42    17.643436    0      6      
iter: 135  04:35:24  -1.16  -1.48    17.409596    0      9      
iter: 136  04:35:26  -0.85  -1.24    17.615780    0      8      
iter: 137  04:35:28  -1.50  -1.43    17.650733    0      6      
iter: 138  04:35:31  -1.14  -1.49    17.409922    0      9      
iter: 139  04:35:33  -0.78  -1.24    17.612225    0      8      
iter: 140  04:35:35  -1.59  -1.42    17.643993    0      6      
iter: 141  04:35:38  -1.16  -1.48    17.409418    0      9      
iter: 142  04:35:40  -0.84  -1.24    17.615807    0      8      
iter: 143  04:35:42  -1.50  -1.43    17.650369    0      6      
iter: 144  04:35:45  -1.14  -1.49    17.409658    0      9      
iter: 145  04:35:47  -0.78  -1.24    17.612693    0      8      
iter: 146  04:35:50  -1.58  -1.42    17.644408    0      6      
iter: 147  04:35:52  -1.16  -1.48    17.409247    0      9      
iter: 148  04:35:54  -0.84  -1.24    17.615881    0      8      
iter: 149  04:35:57  -1.51  -1.43    17.650139    0      6      
iter: 150  04:35:59  -1.14  -1.49    17.409382    0      9      

Did not converge!

Here are some tips:

1) Make sure the geometry and spin-state is physically sound.
2) Use less aggressive density mixing.
3) Solve the eigenvalue problem more accurately at each scf-step.
4) Use a smoother distribution function for the occupation numbers.
5) Try adding more empty states.
6) Use enough k-points.
7) Don't let your structure optimization algorithm take too large steps.
8) Solve the Poisson equation more accurately.
9) Better initial guess for the wave functions.

See details here:

    https://wiki.fysik.dtu.dk/gpaw/documentation/convergence.html


Timing:                              incl.     excl.
-----------------------------------------------------------
Hamiltonian:                         2.626     0.000   0.0% |
 Atomic:                             0.203     0.001   0.0% |
  XC Correction:                     0.202     0.202   0.1% |
 Calculate atomic Hamiltonians:      0.004     0.004   0.0% |
 Communicate:                        0.000     0.000   0.0% |
 Hartree integrate/restrict:         0.011     0.011   0.0% |
 Initialize Hamiltonian:             0.000     0.000   0.0% |
 Poisson:                            1.810     1.810   0.5% |
 XC 3D grid:                         0.593     0.593   0.2% |
 vbar:                               0.004     0.004   0.0% |
LCAO initialization:                 0.699     0.596   0.2% |
 LCAO eigensolver:                   0.032     0.000   0.0% |
  Calculate projections:             0.000     0.000   0.0% |
  DenseAtomicCorrection:             0.000     0.000   0.0% |
  Distribute overlap matrix:         0.000     0.000   0.0% |
  Orbital Layouts:                   0.000     0.000   0.0% |
  Potential matrix:                  0.031     0.031   0.0% |
 LCAO to grid:                       0.066     0.066   0.0% |
 Set positions (LCAO WFS):           0.005     0.000   0.0% |
  Basic WFS set positions:           0.000     0.000   0.0% |
  Basis functions set positions:     0.000     0.000   0.0% |
  TCI: Calculate S, T, P:            0.005     0.005   0.0% |
SCF-cycle:                         350.137     0.056   0.0% |
 Davidson:                          93.271    17.654   5.0% |-|
  Apply hamiltonian:                 6.667     6.667   1.9% ||
  Subspace diag:                    26.249     0.016   0.0% |
   calc_h_matrix:                   12.852     6.155   1.7% ||
    Apply hamiltonian:               6.697     6.697   1.9% ||
   diagonalize:                      0.036     0.036   0.0% |
   rotate_psi:                      13.345    13.345   3.8% |-|
  calc. matrices:                   29.255    22.584   6.4% |--|
   Apply hamiltonian:                6.671     6.671   1.9% ||
  diagonalize:                       0.117     0.117   0.0% |
  rotate_psi:                       13.329    13.329   3.8% |-|
 Density:                            4.011     0.003   0.0% |
  Atomic density matrices:           0.102     0.102   0.0% |
  Mix:                               2.895     2.895   0.8% |
  Multipole moments:                 0.027     0.027   0.0% |
  Pseudo density:                    0.984     0.982   0.3% |
   Symmetrize density:               0.003     0.003   0.0% |
 Hamiltonian:                      252.726     0.017   0.0% |
  Atomic:                           29.922     0.138   0.0% |
   XC Correction:                   29.784    29.784   8.4% |--|
  Calculate atomic Hamiltonians:     0.649     0.649   0.2% |
  Communicate:                       0.001     0.001   0.0% |
  Hartree integrate/restrict:        1.568     1.568   0.4% |
  Poisson:                         131.326   131.326  37.0% |--------------|
  XC 3D grid:                       88.937    88.937  25.1% |---------|
  vbar:                              0.306     0.306   0.1% |
 Orthonormalize:                     0.073     0.000   0.0% |
  calc_s_matrix:                     0.025     0.025   0.0% |
  inverse-cholesky:                  0.000     0.000   0.0% |
  projections:                       0.014     0.014   0.0% |
  rotate_psi_s:                      0.034     0.034   0.0% |
Set symmetry:                        0.001     0.001   0.0% |
Other:                               1.036     1.036   0.3% |
-----------------------------------------------------------
Total:                                       354.498 100.0%

Memory usage: 200.33 MiB
Date: Mon Aug 20 04:36:01 2018
