
  ___ ___ ___ _ _ _  
 |   |   |_  | | | | 
 | | | | | . | | | | 
 |__ |  _|___|_____|  1.4.0
 |___|_|             

User:   ???@3fe09ff0504a
Date:   Mon Aug 20 13:53:40 2018
Arch:   x86_64
Pid:    84
Python: 3.7.0
gpaw:   /app/gpaw/software/venv/lib/python3.7/site-packages/gpaw
_gpaw:  /app/gpaw/software/venv/lib/python3.7/site-packages/
        _gpaw.cpython-37m-x86_64-linux-gnu.so
ase:    /app/gpaw/software/venv/lib/python3.7/site-packages/ase (version 3.16.2)
numpy:  /app/gpaw/software/venv/lib/python3.7/site-packages/numpy (version 1.15.0)
scipy:  /app/gpaw/software/venv/lib/python3.7/site-packages/scipy (version 1.1.0)
units:  Angstrom and eV
cores:  1

Input parameters:
  gpts: [56 48 40]
  maxiter: 150
  mixer: {backend: pulay,
          beta: None,
          method: separate,
          nmaxold: None,
          weight: None}
  xc: PBE

System changes: positions, numbers, cell, pbc, initial_charges, initial_magmoms 

Initialize ...

Hf-setup:
  name: Hafnium
  id: d03a45b6fa1dd7f07e443d1513edf499
  Z: 72
  valence: 12
  core: 60
  charge: 0.0
  file: /app/gpaw/datasets/Hf.PBE
  cutoffs: 1.30(comp), 2.36(filt), 4.02(core), lmax=2
  valence states:
                energy  radius
    5s(2.00)   -66.831   1.397
    6s(2.00)    -5.097   1.397
    5p(6.00)   -35.599   1.307
    6p(0.00)    -1.401   1.307
    5d(2.00)    -2.699   1.334
    *d          24.513   1.334

  Using partial waves for Hf as LCAO basis

N-setup:
  name: Nitrogen
  id: 45c8c9c739e7b131496b9fd2deb94bff
  Z: 7
  valence: 5
  core: 2
  charge: 0.0
  file: /app/gpaw/datasets/N.PBE
  cutoffs: 0.58(comp), 1.11(filt), 0.96(core), lmax=2
  valence states:
                energy  radius
    2s(2.00)   -18.583   0.603
    2p(3.00)    -7.089   0.529
    *s           8.629   0.603
    *p          20.123   0.529
    *d           0.000   0.577

  Using partial waves for N as LCAO basis

C-setup:
  name: Carbon
  id: 2f012631b351e3618121587a96c50fca
  Z: 6
  valence: 4
  core: 2
  charge: 0.0
  file: /app/gpaw/datasets/C.PBE
  cutoffs: 0.64(comp), 1.14(filt), 1.14(core), lmax=2
  valence states:
                energy  radius
    2s(2.00)   -13.751   0.635
    2p(2.00)    -5.285   0.635
    *s          13.461   0.635
    *p          21.927   0.635
    *d           0.000   0.635

  Using partial waves for C as LCAO basis

Reference energy: -412395.464894

Spin-paired calculation

Occupation numbers:
  Fermi-Dirac: width=0.0000 eV

Convergence criteria:
  Maximum total energy change: 0.0005 eV / electron
  Maximum integral of absolute density change: 0.0001 electrons
  Maximum integral of absolute eigenstate change: 4e-08 eV^2
  Maximum number of iterations: 150

Symmetries present (total): 1

  ( 1  0  0)
  ( 0  1  0)
  ( 0  0  1)

1 k-point (Gamma)
1 k-point in the irreducible part of the Brillouin zone
       k-points in crystal coordinates                weights
   0:     0.00000000    0.00000000    0.00000000          1/1

Wave functions: Uniform real-space grid
  Kinetic energy operator: 6*3+1=19 point O(h^6) finite-difference Laplacian
  ScaLapack parameters: grid=1x1, blocksize=None 

Eigensolver
   Davidson(niter=1, smin=None, normalize=True) 

Densities:
  Coarse grid: 56*48*40 grid
  Fine grid: 112*96*80 grid
  Total Charge: 0.000000 

Density mixing:
  Method: separate
  Backend: pulay
  Linear mixing parameter: 0.25
  Mixing with 3 old densities
  No damping of long wave oscillations 

Hamiltonian:
  XC and Coulomb potentials evaluated on a 112*96*80 grid
  Using the PBE Exchange-Correlation functional
  Interpolation: tri-quintic (5. degree polynomial)
  Poisson solver: Jacobi solver with 5 multi-grid levels
    Coarsest grid: 7 x 6 x 5 points
    Stencil: 6*3+1=19 point O(h^6) finite-difference Laplacian
    Max iterations: 1000
    Tolerance: 2.000000e-10 

Memory estimate:
  Process memory now: 41.59 MiB
  Calculator: 111.12 MiB
    Density: 42.40 MiB
      Arrays: 20.61 MiB
      Localized functions: 17.17 MiB
      Mixer: 4.61 MiB
    Hamiltonian: 30.06 MiB
      Arrays: 13.48 MiB
      XC: 0.00 MiB
      Poisson: 15.43 MiB
      vbar: 1.15 MiB
    Wavefunctions: 38.66 MiB
      Arrays psit_nG: 16.15 MiB
      Eigensolver: 20.03 MiB
      Projections: 0.01 MiB
      Projectors: 2.47 MiB

Total number of cores used: 1

Number of atoms: 3
Number of atomic orbitals: 21
Number of bands in calculation: 21
Bands to converge: occupied states only
Number of valence electrons: 21

... initialized

Initializing position-dependent things.

Density initialized from atomic densities
Creating initial wave functions:
  21 bands from LCAO basis set

      .--------------------.  
     /|                    |  
    / |                    |  
   /  |                    |  
  /   |                    |  
 *    |                    |  
 |    |    NHf   C         |  
 |    .--------------------.  
 |   /                    /   
 |  /                    /    
 | /                    /     
 |/                    /      
 *--------------------*       

Positions:
   0 Hf     3.400000    4.350000    3.000000    ( 0.0000,  0.0000,  0.0000)
   1 N      3.400000    3.150000    3.000000    ( 0.0000,  0.0000,  0.0000)
   2 C      5.100000    4.350000    3.000000    ( 0.0000,  0.0000,  0.0000)

Unit cell:
           periodic     x           y           z      points  spacing
  1. axis:    no     8.500000    0.000000    0.000000    56     0.1518
  2. axis:    no     0.000000    7.500000    0.000000    48     0.1562
  3. axis:    no     0.000000    0.000000    6.000000    40     0.1500

  Lengths:   8.500000   7.500000   6.000000
  Angles:   90.000000  90.000000  90.000000

Effective grid spacing dv^(1/3) = 0.1527

                     log10-error:    total        iterations:
           time      wfs    density  energy       fermi  poisson
iter:   1  13:53:45  +2.60   +inf     4.853560    0      15     
iter:   2  13:53:46  +1.37   +inf     3.535762    0             
iter:   3  13:53:47  +0.75   +inf     3.231275    0             
iter:   4  13:53:50  +0.56  -0.69     7.708859    0      9      
iter:   5  13:53:52  +0.33  -0.93     8.549361    0      8      
iter:   6  13:53:55  +0.53  -1.22     8.589531    0      7      
iter:   7  13:53:57  +0.07  -1.40     8.517301    0      7      
iter:   8  13:54:00  +0.04  -1.62     8.460275    0      7      
iter:   9  13:54:02  -0.47  -1.88     8.441739    0      7      
iter:  10  13:54:05  -0.72  -2.15     8.438830    0      5      
iter:  11  13:54:07  -1.16  -2.34     8.438542    0      5      
iter:  12  13:54:09  -1.45  -2.50     8.438841    0      5      
iter:  13  13:54:11  -1.89  -2.67     8.438759    0      4      
iter:  14  13:54:14  -2.07  -2.82     8.438703    0      4      
iter:  15  13:54:16  -2.45  -3.01     8.438651    0      4      
iter:  16  13:54:18  -2.64  -3.23     8.438648    0      3      
iter:  17  13:54:20  -2.99  -3.37     8.438637    0      4      
iter:  18  13:54:22  -3.17  -3.72     8.438637    0      3      
iter:  19  13:54:24  -3.46  -3.97     8.438536    0      2      
iter:  20  13:54:26  -3.72  -4.08     8.438606    0      3      
iter:  21  13:54:28  -3.92  -4.47     8.438591    0      2      
iter:  22  13:54:30  -4.26  -4.60     8.438528    0      1      
iter:  23  13:54:31  -4.42  -4.66     8.438552    0      1      
iter:  24  13:54:33  -4.76  -4.65     8.438577    0      1      
iter:  25  13:54:35  -4.90  -4.64     8.438796    0      1      
iter:  26  13:54:37  -5.19  -4.44     8.438580    0      2      
iter:  27  13:54:38  -5.36  -4.76     8.438468    0      1      
iter:  28  13:54:40  -5.79  -5.09     8.438569    0      1      
iter:  29  13:54:42  -5.81  -5.24     8.438607    0      1      
iter:  30  13:54:44  -6.22  -5.72     8.438628    0      1      
iter:  31  13:54:45  -6.24  -5.82     8.438630    0      1      
iter:  32  13:54:47  -6.64  -5.89     8.438629    0      1      
iter:  33  13:54:49  -6.67  -5.90     8.438629    0      1      
iter:  34  13:54:51  -7.05  -5.88     8.438629    0      1      
iter:  35  13:54:52  -7.08  -5.84     8.438630    0      1      
iter:  36  13:54:54  -7.45  -5.69     8.438626    0      1      

Converged after 36 iterations.

Dipole moment: (-0.990297, 0.307950, 0.000000) |e|*Ang

Energy contributions relative to reference atoms: (reference = -412395.464894)

Kinetic:       +192.010074
Potential:     -146.761589
External:        +0.000000
XC:             -38.543814
Entropy (-ST):   +0.000000
Local:           +1.733955
--------------------------
Free energy:     +8.438626
Extrapolated:    +8.438626

Fermi level: -3.46289

 Band  Eigenvalues  Occupancy
    0    -65.85662    2.00000
    1    -38.71087    2.00000
    2    -34.15857    2.00000
    3    -33.62995    2.00000
    4    -14.00635    2.00000
    5    -11.57933    2.00000
    6    -10.33097    2.00000
    7     -9.70575    2.00000
    8     -5.29888    2.00000
    9     -4.79501    2.00000
   10     -3.46289    1.00000
   11     -2.47646    0.00000
   12     -1.72727    0.00000
   13      0.19102    0.00000
   14      0.77477    0.00000
   15      2.87188    0.00000
   16      3.15659    0.00000
   17      3.59484    0.00000
   18      4.24183    0.00000
   19      5.22504    0.00000
   20      5.56924    0.00000

Writing to 3_38249_Pm_PBE_1534773220.gpw (mode='all')

Timing:                              incl.     excl.
-----------------------------------------------------------
Hamiltonian:                         2.958     0.000   0.0% |
 Atomic:                             0.196     0.001   0.0% |
  XC Correction:                     0.195     0.195   0.3% |
 Calculate atomic Hamiltonians:      0.005     0.005   0.0% |
 Communicate:                        0.000     0.000   0.0% |
 Hartree integrate/restrict:         0.011     0.011   0.0% |
 Initialize Hamiltonian:             0.000     0.000   0.0% |
 Poisson:                            2.040     2.040   2.8% ||
 XC 3D grid:                         0.703     0.703   0.9% |
 vbar:                               0.003     0.003   0.0% |
LCAO initialization:                 0.692     0.579   0.8% |
 LCAO eigensolver:                   0.035     0.000   0.0% |
  Calculate projections:             0.000     0.000   0.0% |
  DenseAtomicCorrection:             0.000     0.000   0.0% |
  Distribute overlap matrix:         0.000     0.000   0.0% |
  Orbital Layouts:                   0.000     0.000   0.0% |
  Potential matrix:                  0.034     0.034   0.0% |
 LCAO to grid:                       0.071     0.071   0.1% |
 Set positions (LCAO WFS):           0.007     0.000   0.0% |
  Basic WFS set positions:           0.000     0.000   0.0% |
  Basis functions set positions:     0.000     0.000   0.0% |
  TCI: Calculate S, T, P:            0.007     0.007   0.0% |
SCF-cycle:                          69.423     0.015   0.0% |
 Davidson:                          23.841     4.730   6.4% |--|
  Apply hamiltonian:                 1.840     1.840   2.5% ||
  Subspace diag:                     6.636     0.004   0.0% |
   calc_h_matrix:                    3.250     1.410   1.9% ||
    Apply hamiltonian:               1.840     1.840   2.5% ||
   diagonalize:                      0.008     0.008   0.0% |
   rotate_psi:                       3.374     3.374   4.6% |-|
  calc. matrices:                    7.258     5.418   7.3% |--|
   Apply hamiltonian:                1.840     1.840   2.5% ||
  diagonalize:                       0.028     0.028   0.0% |
  rotate_psi:                        3.350     3.350   4.5% |-|
 Density:                            0.894     0.001   0.0% |
  Atomic density matrices:           0.023     0.023   0.0% |
  Mix:                               0.623     0.623   0.8% |
  Multipole moments:                 0.006     0.006   0.0% |
  Pseudo density:                    0.242     0.241   0.3% |
   Symmetrize density:               0.001     0.001   0.0% |
 Hamiltonian:                       44.607     0.004   0.0% |
  Atomic:                            6.472     0.029   0.0% |
   XC Correction:                    6.443     6.443   8.7% |--|
  Calculate atomic Hamiltonians:     0.155     0.155   0.2% |
  Communicate:                       0.000     0.000   0.0% |
  Hartree integrate/restrict:        0.361     0.361   0.5% |
  Poisson:                          14.309    14.309  19.3% |-------|
  XC 3D grid:                       23.241    23.241  31.4% |------------|
  vbar:                              0.067     0.067   0.1% |
 Orthonormalize:                     0.065     0.000   0.0% |
  calc_s_matrix:                     0.021     0.021   0.0% |
  inverse-cholesky:                  0.000     0.000   0.0% |
  projections:                       0.015     0.015   0.0% |
  rotate_psi_s:                      0.028     0.028   0.0% |
Set symmetry:                        0.001     0.001   0.0% |
Other:                               1.053     1.053   1.4% ||
-----------------------------------------------------------
Total:                                        74.126 100.0%

Memory usage: 230.47 MiB
Date: Mon Aug 20 13:54:54 2018
