
  ___ ___ ___ _ _ _  
 |   |   |_  | | | | 
 | | | | | . | | | | 
 |__ |  _|___|_____|  1.4.0
 |___|_|             

User:   ???@3fe09ff0504a
Date:   Mon Aug 20 14:02:09 2018
Arch:   x86_64
Pid:    93
Python: 3.7.0
gpaw:   /app/gpaw/software/venv/lib/python3.7/site-packages/gpaw
_gpaw:  /app/gpaw/software/venv/lib/python3.7/site-packages/
        _gpaw.cpython-37m-x86_64-linux-gnu.so
ase:    /app/gpaw/software/venv/lib/python3.7/site-packages/ase (version 3.16.2)
numpy:  /app/gpaw/software/venv/lib/python3.7/site-packages/numpy (version 1.15.0)
scipy:  /app/gpaw/software/venv/lib/python3.7/site-packages/scipy (version 1.1.0)
units:  Angstrom and eV
cores:  1

Input parameters:
  gpts: [56 48 40]
  maxiter: 150
  mixer: {backend: pulay,
          beta: None,
          method: separate,
          nmaxold: None,
          weight: None}
  xc: PBE

System changes: positions, numbers, cell, pbc, initial_charges, initial_magmoms 

Initialize ...

Hf-setup:
  name: Hafnium
  id: d03a45b6fa1dd7f07e443d1513edf499
  Z: 72
  valence: 12
  core: 60
  charge: 0.0
  file: /app/gpaw/datasets/Hf.PBE
  cutoffs: 1.30(comp), 2.36(filt), 4.02(core), lmax=2
  valence states:
                energy  radius
    5s(2.00)   -66.831   1.397
    6s(2.00)    -5.097   1.397
    5p(6.00)   -35.599   1.307
    6p(0.00)    -1.401   1.307
    5d(2.00)    -2.699   1.334
    *d          24.513   1.334

  Using partial waves for Hf as LCAO basis

N-setup:
  name: Nitrogen
  id: 45c8c9c739e7b131496b9fd2deb94bff
  Z: 7
  valence: 5
  core: 2
  charge: 0.0
  file: /app/gpaw/datasets/N.PBE
  cutoffs: 0.58(comp), 1.11(filt), 0.96(core), lmax=2
  valence states:
                energy  radius
    2s(2.00)   -18.583   0.603
    2p(3.00)    -7.089   0.529
    *s           8.629   0.603
    *p          20.123   0.529
    *d           0.000   0.577

  Using partial waves for N as LCAO basis

C-setup:
  name: Carbon
  id: 2f012631b351e3618121587a96c50fca
  Z: 6
  valence: 4
  core: 2
  charge: 0.0
  file: /app/gpaw/datasets/C.PBE
  cutoffs: 0.64(comp), 1.14(filt), 1.14(core), lmax=2
  valence states:
                energy  radius
    2s(2.00)   -13.751   0.635
    2p(2.00)    -5.285   0.635
    *s          13.461   0.635
    *p          21.927   0.635
    *d           0.000   0.635

  Using partial waves for C as LCAO basis

Reference energy: -412395.464894

Spin-paired calculation

Occupation numbers:
  Fermi-Dirac: width=0.0000 eV

Convergence criteria:
  Maximum total energy change: 0.0005 eV / electron
  Maximum integral of absolute density change: 0.0001 electrons
  Maximum integral of absolute eigenstate change: 4e-08 eV^2
  Maximum number of iterations: 150

Symmetries present (total): 1

  ( 1  0  0)
  ( 0  1  0)
  ( 0  0  1)

1 k-point (Gamma)
1 k-point in the irreducible part of the Brillouin zone
       k-points in crystal coordinates                weights
   0:     0.00000000    0.00000000    0.00000000          1/1

Wave functions: Uniform real-space grid
  Kinetic energy operator: 6*3+1=19 point O(h^6) finite-difference Laplacian
  ScaLapack parameters: grid=1x1, blocksize=None 

Eigensolver
   Davidson(niter=1, smin=None, normalize=True) 

Densities:
  Coarse grid: 56*48*40 grid
  Fine grid: 112*96*80 grid
  Total Charge: 0.000000 

Density mixing:
  Method: separate
  Backend: pulay
  Linear mixing parameter: 0.25
  Mixing with 3 old densities
  No damping of long wave oscillations 

Hamiltonian:
  XC and Coulomb potentials evaluated on a 112*96*80 grid
  Using the PBE Exchange-Correlation functional
  Interpolation: tri-quintic (5. degree polynomial)
  Poisson solver: Jacobi solver with 5 multi-grid levels
    Coarsest grid: 7 x 6 x 5 points
    Stencil: 6*3+1=19 point O(h^6) finite-difference Laplacian
    Max iterations: 1000
    Tolerance: 2.000000e-10 

Memory estimate:
  Process memory now: 41.59 MiB
  Calculator: 111.12 MiB
    Density: 42.40 MiB
      Arrays: 20.61 MiB
      Localized functions: 17.17 MiB
      Mixer: 4.61 MiB
    Hamiltonian: 30.06 MiB
      Arrays: 13.48 MiB
      XC: 0.00 MiB
      Poisson: 15.43 MiB
      vbar: 1.15 MiB
    Wavefunctions: 38.66 MiB
      Arrays psit_nG: 16.15 MiB
      Eigensolver: 20.03 MiB
      Projections: 0.01 MiB
      Projectors: 2.47 MiB

Total number of cores used: 1

Number of atoms: 3
Number of atomic orbitals: 21
Number of bands in calculation: 21
Bands to converge: occupied states only
Number of valence electrons: 21

... initialized

Initializing position-dependent things.

Density initialized from atomic densities
Creating initial wave functions:
  21 bands from LCAO basis set

      .--------------------.  
     /|                    |  
    / |                    |  
   /  |                    |  
  /   |                    |  
 *    |                    |  
 |    |    NHf   C         |  
 |    .--------------------.  
 |   /                    /   
 |  /                    /    
 | /                    /     
 |/                    /      
 *--------------------*       

Positions:
   0 Hf     3.400000    4.375000    3.000000    ( 0.0000,  0.0000,  0.0000)
   1 N      3.400000    3.125000    3.000000    ( 0.0000,  0.0000,  0.0000)
   2 C      5.100000    4.375000    3.000000    ( 0.0000,  0.0000,  0.0000)

Unit cell:
           periodic     x           y           z      points  spacing
  1. axis:    no     8.500000    0.000000    0.000000    56     0.1518
  2. axis:    no     0.000000    7.500000    0.000000    48     0.1562
  3. axis:    no     0.000000    0.000000    6.000000    40     0.1500

  Lengths:   8.500000   7.500000   6.000000
  Angles:   90.000000  90.000000  90.000000

Effective grid spacing dv^(1/3) = 0.1527

                     log10-error:    total        iterations:
           time      wfs    density  energy       fermi  poisson
iter:   1  14:02:14  +2.59   +inf    -1.087621    0      15     
iter:   2  14:02:15  +1.33   +inf    -2.295173    0             
iter:   3  14:02:15  +0.70   +inf    -2.579250    0             
iter:   4  14:02:18  +0.55  -0.69     2.125485    0      9      
iter:   5  14:02:21  +0.33  -0.93     2.996517    0      8      
iter:   6  14:02:23  +0.45  -1.17     3.164621    0      7      
iter:   7  14:02:26  +0.17  -1.40     3.105738    0      7      
iter:   8  14:02:28  +0.02  -1.60     3.058473    0      7      
iter:   9  14:02:31  -0.42  -1.88     3.044146    0      7      
iter:  10  14:02:33  -0.68  -2.16     3.041439    0      5      
iter:  11  14:02:35  -1.16  -2.35     3.041050    0      5      
iter:  12  14:02:38  -1.42  -2.53     3.041191    0      5      
iter:  13  14:02:40  -1.92  -2.70     3.041132    0      5      
iter:  14  14:02:42  -2.03  -2.87     3.041053    0      4      
iter:  15  14:02:44  -2.50  -3.01     3.041002    0      4      
iter:  16  14:02:46  -2.62  -3.24     3.041009    0      3      
iter:  17  14:02:48  -3.07  -3.40     3.040994    0      4      
iter:  18  14:02:50  -3.14  -3.76     3.040994    0      3      
iter:  19  14:02:52  -3.55  -4.00     3.040925    0      2      
iter:  20  14:02:54  -3.68  -4.13     3.040903    0      2      
iter:  21  14:02:56  -4.06  -4.32     3.040897    0      2      
iter:  22  14:02:58  -4.26  -4.52     3.040792    0      1      
iter:  23  14:02:59  -4.54  -4.63     3.040774    0      1      
iter:  24  14:03:01  -4.79  -4.73     3.040772    0      1      
iter:  25  14:03:03  -5.03  -5.00     3.040852    0      1      
iter:  26  14:03:05  -5.30  -5.21     3.040980    0      1      
iter:  27  14:03:06  -5.51  -5.30     3.040979    0      1      
iter:  28  14:03:08  -5.77  -5.46     3.040993    0      1      
iter:  29  14:03:10  -5.98  -5.74     3.040983    0      1      
iter:  30  14:03:12  -6.23  -5.80     3.040984    0      1      
iter:  31  14:03:13  -6.43  -5.95     3.040979    0      1      
iter:  32  14:03:15  -6.68  -6.26     3.040981    0      1      
iter:  33  14:03:17  -6.88  -6.31     3.040979    0      1      
iter:  34  14:03:19  -7.10  -6.47     3.040980    0      1      
iter:  35  14:03:20  -7.32  -6.50     3.040980    0      1      
iter:  36  14:03:22  -7.51  -6.47     3.040981    0      1      

Converged after 36 iterations.

Dipole moment: (-0.950115, 0.399054, 0.000000) |e|*Ang

Energy contributions relative to reference atoms: (reference = -412395.464894)

Kinetic:       +166.039505
Potential:     -127.936653
External:        +0.000000
XC:             -36.454988
Entropy (-ST):   +0.000000
Local:           +1.393116
--------------------------
Free energy:     +3.040981
Extrapolated:    +3.040981

Fermi level: -3.61312

 Band  Eigenvalues  Occupancy
    0    -65.10203    2.00000
    1    -37.83465    2.00000
    2    -33.84025    2.00000
    3    -33.27130    2.00000
    4    -14.09758    2.00000
    5    -11.62779    2.00000
    6     -9.78247    2.00000
    7     -9.07143    2.00000
    8     -5.41114    2.00000
    9     -4.83314    2.00000
   10     -3.61312    1.00000
   11     -2.57802    0.00000
   12     -1.75815    0.00000
   13      0.22823    0.00000
   14      0.78999    0.00000
   15      2.87486    0.00000
   16      3.09967    0.00000
   17      3.46479    0.00000
   18      4.23381    0.00000
   19      5.38005    0.00000
   20      5.39388    0.00000

Writing to 3_38249_Pm_PBE_1534773729.gpw (mode='all')

Timing:                              incl.     excl.
-----------------------------------------------------------
Hamiltonian:                         2.939     0.000   0.0% |
 Atomic:                             0.194     0.001   0.0% |
  XC Correction:                     0.193     0.193   0.3% |
 Calculate atomic Hamiltonians:      0.005     0.005   0.0% |
 Communicate:                        0.000     0.000   0.0% |
 Hartree integrate/restrict:         0.011     0.011   0.0% |
 Initialize Hamiltonian:             0.000     0.000   0.0% |
 Poisson:                            2.024     2.024   2.8% ||
 XC 3D grid:                         0.702     0.702   1.0% |
 vbar:                               0.003     0.003   0.0% |
LCAO initialization:                 0.684     0.572   0.8% |
 LCAO eigensolver:                   0.035     0.000   0.0% |
  Calculate projections:             0.000     0.000   0.0% |
  DenseAtomicCorrection:             0.000     0.000   0.0% |
  Distribute overlap matrix:         0.000     0.000   0.0% |
  Orbital Layouts:                   0.000     0.000   0.0% |
  Potential matrix:                  0.034     0.034   0.0% |
 LCAO to grid:                       0.073     0.073   0.1% |
 Set positions (LCAO WFS):           0.004     0.000   0.0% |
  Basic WFS set positions:           0.000     0.000   0.0% |
  Basis functions set positions:     0.000     0.000   0.0% |
  TCI: Calculate S, T, P:            0.004     0.004   0.0% |
SCF-cycle:                          68.788     0.015   0.0% |
 Davidson:                          23.513     4.601   6.3% |--|
  Apply hamiltonian:                 1.838     1.838   2.5% ||
  Subspace diag:                     6.547     0.003   0.0% |
   calc_h_matrix:                    3.220     1.390   1.9% ||
    Apply hamiltonian:               1.830     1.830   2.5% ||
   diagonalize:                      0.008     0.008   0.0% |
   rotate_psi:                       3.315     3.315   4.5% |-|
  calc. matrices:                    7.206     5.368   7.3% |--|
   Apply hamiltonian:                1.838     1.838   2.5% ||
  diagonalize:                       0.028     0.028   0.0% |
  rotate_psi:                        3.293     3.293   4.5% |-|
 Density:                            0.881     0.001   0.0% |
  Atomic density matrices:           0.022     0.022   0.0% |
  Mix:                               0.616     0.616   0.8% |
  Multipole moments:                 0.006     0.006   0.0% |
  Pseudo density:                    0.237     0.236   0.3% |
   Symmetrize density:               0.001     0.001   0.0% |
 Hamiltonian:                       44.313     0.004   0.0% |
  Atomic:                            6.459     0.028   0.0% |
   XC Correction:                    6.430     6.430   8.8% |---|
  Calculate atomic Hamiltonians:     0.153     0.153   0.2% |
  Communicate:                       0.000     0.000   0.0% |
  Hartree integrate/restrict:        0.360     0.360   0.5% |
  Poisson:                          14.073    14.073  19.2% |-------|
  XC 3D grid:                       23.202    23.202  31.6% |------------|
  vbar:                              0.063     0.063   0.1% |
 Orthonormalize:                     0.065     0.000   0.0% |
  calc_s_matrix:                     0.022     0.022   0.0% |
  inverse-cholesky:                  0.000     0.000   0.0% |
  projections:                       0.015     0.015   0.0% |
  rotate_psi_s:                      0.028     0.028   0.0% |
Set symmetry:                        0.001     0.001   0.0% |
Other:                               1.044     1.044   1.4% ||
-----------------------------------------------------------
Total:                                        73.456 100.0%

Memory usage: 230.11 MiB
Date: Mon Aug 20 14:03:22 2018
