
  ___ ___ ___ _ _ _  
 |   |   |_  | | | | 
 | | | | | . | | | | 
 |__ |  _|___|_____|  1.4.0
 |___|_|             

User:   ???@3fe09ff0504a
Date:   Mon Aug 20 14:56:35 2018
Arch:   x86_64
Pid:    252
Python: 3.7.0
gpaw:   /app/gpaw/software/venv/lib/python3.7/site-packages/gpaw
_gpaw:  /app/gpaw/software/venv/lib/python3.7/site-packages/
        _gpaw.cpython-37m-x86_64-linux-gnu.so
ase:    /app/gpaw/software/venv/lib/python3.7/site-packages/ase (version 3.16.2)
numpy:  /app/gpaw/software/venv/lib/python3.7/site-packages/numpy (version 1.15.0)
scipy:  /app/gpaw/software/venv/lib/python3.7/site-packages/scipy (version 1.1.0)
units:  Angstrom and eV
cores:  1

Input parameters:
  gpts: [56 48 40]
  maxiter: 150
  mixer: {backend: pulay,
          beta: None,
          method: separate,
          nmaxold: None,
          weight: None}
  xc: PBE

System changes: positions, numbers, cell, pbc, initial_charges, initial_magmoms 

Initialize ...

Hf-setup:
  name: Hafnium
  id: d03a45b6fa1dd7f07e443d1513edf499
  Z: 72
  valence: 12
  core: 60
  charge: 0.0
  file: /app/gpaw/datasets/Hf.PBE
  cutoffs: 1.30(comp), 2.36(filt), 4.02(core), lmax=2
  valence states:
                energy  radius
    5s(2.00)   -66.831   1.397
    6s(2.00)    -5.097   1.397
    5p(6.00)   -35.599   1.307
    6p(0.00)    -1.401   1.307
    5d(2.00)    -2.699   1.334
    *d          24.513   1.334

  Using partial waves for Hf as LCAO basis

N-setup:
  name: Nitrogen
  id: 45c8c9c739e7b131496b9fd2deb94bff
  Z: 7
  valence: 5
  core: 2
  charge: 0.0
  file: /app/gpaw/datasets/N.PBE
  cutoffs: 0.58(comp), 1.11(filt), 0.96(core), lmax=2
  valence states:
                energy  radius
    2s(2.00)   -18.583   0.603
    2p(3.00)    -7.089   0.529
    *s           8.629   0.603
    *p          20.123   0.529
    *d           0.000   0.577

  Using partial waves for N as LCAO basis

C-setup:
  name: Carbon
  id: 2f012631b351e3618121587a96c50fca
  Z: 6
  valence: 4
  core: 2
  charge: 0.0
  file: /app/gpaw/datasets/C.PBE
  cutoffs: 0.64(comp), 1.14(filt), 1.14(core), lmax=2
  valence states:
                energy  radius
    2s(2.00)   -13.751   0.635
    2p(2.00)    -5.285   0.635
    *s          13.461   0.635
    *p          21.927   0.635
    *d           0.000   0.635

  Using partial waves for C as LCAO basis

Reference energy: -412395.464894

Spin-paired calculation

Occupation numbers:
  Fermi-Dirac: width=0.0000 eV

Convergence criteria:
  Maximum total energy change: 0.0005 eV / electron
  Maximum integral of absolute density change: 0.0001 electrons
  Maximum integral of absolute eigenstate change: 4e-08 eV^2
  Maximum number of iterations: 150

Symmetries present (total): 1

  ( 1  0  0)
  ( 0  1  0)
  ( 0  0  1)

1 k-point (Gamma)
1 k-point in the irreducible part of the Brillouin zone
       k-points in crystal coordinates                weights
   0:     0.00000000    0.00000000    0.00000000          1/1

Wave functions: Uniform real-space grid
  Kinetic energy operator: 6*3+1=19 point O(h^6) finite-difference Laplacian
  ScaLapack parameters: grid=1x1, blocksize=None 

Eigensolver
   Davidson(niter=1, smin=None, normalize=True) 

Densities:
  Coarse grid: 56*48*40 grid
  Fine grid: 112*96*80 grid
  Total Charge: 0.000000 

Density mixing:
  Method: separate
  Backend: pulay
  Linear mixing parameter: 0.25
  Mixing with 3 old densities
  No damping of long wave oscillations 

Hamiltonian:
  XC and Coulomb potentials evaluated on a 112*96*80 grid
  Using the PBE Exchange-Correlation functional
  Interpolation: tri-quintic (5. degree polynomial)
  Poisson solver: Jacobi solver with 5 multi-grid levels
    Coarsest grid: 7 x 6 x 5 points
    Stencil: 6*3+1=19 point O(h^6) finite-difference Laplacian
    Max iterations: 1000
    Tolerance: 2.000000e-10 

Memory estimate:
  Process memory now: 41.54 MiB
  Calculator: 111.12 MiB
    Density: 42.40 MiB
      Arrays: 20.61 MiB
      Localized functions: 17.17 MiB
      Mixer: 4.61 MiB
    Hamiltonian: 30.06 MiB
      Arrays: 13.48 MiB
      XC: 0.00 MiB
      Poisson: 15.43 MiB
      vbar: 1.15 MiB
    Wavefunctions: 38.66 MiB
      Arrays psit_nG: 16.15 MiB
      Eigensolver: 20.03 MiB
      Projections: 0.01 MiB
      Projectors: 2.47 MiB

Total number of cores used: 1

Number of atoms: 3
Number of atomic orbitals: 21
Number of bands in calculation: 21
Bands to converge: occupied states only
Number of valence electrons: 21

... initialized

Initializing position-dependent things.

Density initialized from atomic densities
Creating initial wave functions:
  21 bands from LCAO basis set

      .--------------------.  
     /|                    |  
    / |                    |  
   /  |                    |  
  /   |                    |  
 *    |                    |  
 |    |     Nf  C          |  
 |    .--------------------.  
 |   /                    /   
 |  /                    /    
 | /                    /     
 |/                    /      
 *--------------------*       

Positions:
   0 Hf     3.400000    4.300000    3.000000    ( 0.0000,  0.0000,  0.0000)
   1 N      3.400000    3.200000    3.000000    ( 0.0000,  0.0000,  0.0000)
   2 C      5.100000    4.300000    3.000000    ( 0.0000,  0.0000,  0.0000)

Unit cell:
           periodic     x           y           z      points  spacing
  1. axis:    no     8.500000    0.000000    0.000000    56     0.1518
  2. axis:    no     0.000000    7.500000    0.000000    48     0.1562
  3. axis:    no     0.000000    0.000000    6.000000    40     0.1500

  Lengths:   8.500000   7.500000   6.000000
  Angles:   90.000000  90.000000  90.000000

Effective grid spacing dv^(1/3) = 0.1527

                     log10-error:    total        iterations:
           time      wfs    density  energy       fermi  poisson
iter:   1  14:56:40  +2.62   +inf    20.723635    0      15     
iter:   2  14:56:41  +1.41   +inf    19.343032    0             
iter:   3  14:56:42  +0.78   +inf    19.053643    0             
iter:   4  14:56:45  +0.58  -0.69    22.766000    0      9      
iter:   5  14:56:47  +0.49  -0.94    23.342492    0      8      
Timing:                              incl.     excl.
-----------------------------------------------------------
Hamiltonian:                         2.984     0.000   0.0% |
 Atomic:                             0.198     0.001   0.0% |
  XC Correction:                     0.197     0.197   1.4% ||
 Calculate atomic Hamiltonians:      0.005     0.005   0.0% |
 Communicate:                        0.000     0.000   0.0% |
 Hartree integrate/restrict:         0.011     0.011   0.1% |
 Initialize Hamiltonian:             0.000     0.000   0.0% |
 Poisson:                            2.058     2.058  14.2% |-----|
 XC 3D grid:                         0.708     0.708   4.9% |-|
 vbar:                               0.004     0.004   0.0% |
LCAO initialization:                 0.690     0.580   4.0% |-|
 LCAO eigensolver:                   0.035     0.000   0.0% |
  Calculate projections:             0.000     0.000   0.0% |
  DenseAtomicCorrection:             0.000     0.000   0.0% |
  Distribute overlap matrix:         0.000     0.000   0.0% |
  Orbital Layouts:                   0.000     0.000   0.0% |
  Potential matrix:                  0.034     0.034   0.2% |
 LCAO to grid:                       0.071     0.071   0.5% |
 Set positions (LCAO WFS):           0.005     0.000   0.0% |
  Basic WFS set positions:           0.000     0.000   0.0% |
  Basis functions set positions:     0.000     0.000   0.0% |
  TCI: Calculate S, T, P:            0.004     0.004   0.0% |
SCF-cycle:                           9.803     0.004   0.0% |
 Davidson:                           3.472     0.668   4.6% |-|
  Apply hamiltonian:                 0.256     0.256   1.8% ||
  Subspace diag:                     1.068     0.001   0.0% |
   calc_h_matrix:                    0.545     0.237   1.6% ||
    Apply hamiltonian:               0.309     0.309   2.1% ||
   diagonalize:                      0.001     0.001   0.0% |
   rotate_psi:                       0.521     0.521   3.6% ||
  calc. matrices:                    1.007     0.751   5.2% |-|
   Apply hamiltonian:                0.256     0.256   1.8% ||
  diagonalize:                       0.004     0.004   0.0% |
  rotate_psi:                        0.468     0.468   3.2% ||
 Density:                            0.082     0.000   0.0% |
  Atomic density matrices:           0.002     0.002   0.0% |
  Mix:                               0.057     0.057   0.4% |
  Multipole moments:                 0.001     0.001   0.0% |
  Pseudo density:                    0.022     0.022   0.2% |
   Symmetrize density:               0.000     0.000   0.0% |
 Hamiltonian:                        6.179     0.000   0.0% |
  Atomic:                            0.594     0.003   0.0% |
   XC Correction:                    0.591     0.591   4.1% |-|
  Calculate atomic Hamiltonians:     0.014     0.014   0.1% |
  Communicate:                       0.000     0.000   0.0% |
  Hartree integrate/restrict:        0.034     0.034   0.2% |
  Poisson:                           3.406     3.406  23.4% |--------|
  XC 3D grid:                        2.124     2.124  14.6% |-----|
  vbar:                              0.006     0.006   0.0% |
 Orthonormalize:                     0.066     0.000   0.0% |
  calc_s_matrix:                     0.022     0.022   0.1% |
  inverse-cholesky:                  0.000     0.000   0.0% |
  projections:                       0.015     0.015   0.1% |
  rotate_psi_s:                      0.028     0.028   0.2% |
Set symmetry:                        0.001     0.001   0.0% |
Other:                               1.052     1.052   7.2% |--|
-----------------------------------------------------------
Total:                                        14.530 100.0%

Memory usage: 229.97 MiB
Date: Mon Aug 20 14:56:50 2018
